                         Program Version 6.0.0  -   RELEASE  -
|  1> %MaxCore 2000
|  2>
|  3> %base "geo_opt_tzvp"
|  4>
|  5> %cpcm
|  6> radius[1]  1.3
|  7> radius[2]  1.601
|  8> radius[5]  2.048
|  9> radius[6]  2.0
| 10> radius[7]  1.83
| 11> radius[8]  1.72
| 12> radius[9]  1.72
| 13> radius[10]  1.771
| 14> radius[13]  2.152
| 15> radius[14]  2.2
| 16> radius[15]  2.106
| 17> radius[16]  2.16
| 18> radius[17]  2.05
| 19> radius[18]  2.184
| 20> radius[22]  2.261
| 21> radius[26]  2.195
| 22> radius[27]  2.153
| 23> radius[31]  2.172
| 24> radius[32]  2.7
| 25> radius[33]  2.148
| 26> radius[34]  2.2
| 27> radius[35]  2.16
| 28> radius[36]  2.354
| 29> radius[49]  2.245
| 30> radius[50]  2.55
| 31> radius[51]  2.402
| 32> radius[53]  2.32
| 33> radius[54]  2.524
| 34> radius[80]  1.978
| 35> radius[82]  2.36
| 36> radius[86]  2.573
| 37> cut_area 0.03571064825863687
| 38> end
| 39>
| 40> ! OPT CPCM BP86 def2-TZVP PAL16
| 41>
| 42> * xyzfile 0 1 pyridine_c000.xyz
| 43>
| 44> $new_job
| 45>
| 46> ! CPCM BP86 def2-TZVPD SP PAL16
| 47>
| 48> %base "single_point_tzvpd"
| 49>
| 50> * xyzfile 0 1 geo_opt_tzvp.xyz
| 51>
| 52>                          ****END OF INPUT****
 Total Charge           Charge          ....    0
 Multiplicity           Mult            ....    1
 Number of Electrons    NEL             ....   42
FINAL SINGLE POINT ENERGY      -248.383156568141
                    ***********************HURRAY********************
FINAL SINGLE POINT ENERGY      -248.383158027460

CARTESIAN COORDINATES (ANGSTROEM)
---------------------------------
  C     -0.383589    1.131348    0.067648
  C     -1.291963    0.070937    0.030723
  C     -0.795046   -1.232636   -0.048337
  N      0.518260   -1.528589   -0.091430
  C      1.380675   -0.494561   -0.054975
  C      0.982287    0.842378    0.023907
  H     -0.733476    2.163210    0.129340
  H     -2.368087    0.246241    0.062412
  H     -1.482334   -2.083195   -0.078680
  H      2.443440   -0.751393   -0.090889
  H      1.729835    1.636260    0.050281

 Multiplicity           Mult            ....    1
 Number of Electrons    NEL             ....   42
 Basis Dimension        Dim             ....  267

ORBITAL ENERGIES
----------------

  NO   OCC          E(Eh)            E(eV)
   0   2.0000     -14.007378      -381.1601
   1   2.0000      -9.936252      -270.3791
   2   2.0000      -9.936239      -270.3788
   3   2.0000      -9.920130      -269.9405
   4   2.0000      -9.911981      -269.7187
   5   2.0000      -9.911968      -269.7184
   6   2.0000      -0.866946       -23.5908
   7   2.0000      -0.735039       -20.0014
   8   2.0000      -0.695385       -18.9224
   9   2.0000      -0.573568       -15.6076
  10   2.0000      -0.570518       -15.5246
  11   2.0000      -0.478009       -13.0073
  12   2.0000      -0.436165       -11.8686
  13   2.0000      -0.419753       -11.4220
  14   2.0000      -0.383578       -10.4377
  15   2.0000      -0.368111       -10.0168
  16   2.0000      -0.359622        -9.7858
  17   2.0000      -0.322866        -8.7856
  18   2.0000      -0.270750        -7.3675
  19   2.0000      -0.247766        -6.7421
  20   2.0000      -0.230803        -6.2805
  21   0.0000      -0.072596        -1.9754
  22   0.0000      -0.057536        -1.5656
  23   0.0000       0.004683         0.1274
  24   0.0000       0.030682         0.8349
  25   0.0000       0.033498         0.9115

MULLIKEN ATOMIC CHARGES
-----------------------
   0 C :   -0.320610
   1 C :   -0.342912
   2 C :   -0.274835
   3 N :   -0.573940
   4 C :   -0.274765
   5 C :   -0.342862
   6 H :    0.431018
   7 H :    0.424449
   8 H :    0.424878
   9 H :    0.424653
  10 H :    0.424924
Sum of atomic charges:    0.0000000

LOEWDIN ATOMIC CHARGES
----------------------
   0 C :   -0.077962
   1 C :   -0.074069
   2 C :   -0.169441
   3 N :    0.011106
   4 C :   -0.169433
   5 C :   -0.074101
   6 H :    0.115499
   7 H :    0.111514
   8 H :    0.107688
   9 H :    0.107699
  10 H :    0.111501

  Mayer bond orders larger than 0.100000
B(  0-C ,  1-C ) :   1.3948 B(  0-C ,  5-C ) :   1.3946 B(  0-C ,  6-H ) :   0.6994
B(  1-C ,  2-C ) :   1.4132 B(  1-C ,  5-C ) :  -0.1631 B(  1-C ,  7-H ) :   0.7272
B(  2-C ,  3-N ) :   1.1451 B(  2-C ,  8-H ) :   0.7239 B(  3-N ,  4-C ) :   1.1443
B(  4-C ,  5-C ) :   1.4132 B(  4-C ,  9-H ) :   0.7243 B(  5-C , 10-H ) :   0.7268

FINAL SINGLE POINT ENERGY      -248.384235529653

DIPOLE MOMENT
-------------

Method             : SCF
Type of density    : Electron Density
Multiplicity       :   1
Irrep              :   0
Energy             :  -248.3842355296530400 Eh
Relativity type    :
Basis              : AO
                                X                 Y                 Z
Electronic contribution:      0.292852136      -0.864031312      -0.051590547
Nuclear contribution   :     -0.712043358       2.100156197       0.125652814
                        -----------------------------------------
Total Dipole Moment    :     -0.419191223       1.236124885       0.074062267
                        -----------------------------------------
Magnitude (a.u.)       :      1.307368055
Magnitude (Debye)      :      3.323065507

Rotational constants in cm-1:             0.199651             0.192753             0.098071
Rotational constants in MHz :          5985.395588          5778.592672          2940.088207

                             ****ORCA TERMINATED NORMALLY****
TOTAL RUN TIME: 0 days 0 hours 0 minutes 27 seconds 405 msec
