                         Program Version 6.0.0  -   RELEASE  -
|  1> %MaxCore 2000
|  2>
|  3> %base "geo_opt_tzvp"
|  4>
|  5> %cpcm
|  6> radius[1]  1.3
|  7> radius[2]  1.601
|  8> radius[5]  2.048
|  9> radius[6]  2.0
| 10> radius[7]  1.83
| 11> radius[8]  1.72
| 12> radius[9]  1.72
| 13> radius[10]  1.771
| 14> radius[13]  2.152
| 15> radius[14]  2.2
| 16> radius[15]  2.106
| 17> radius[16]  2.16
| 18> radius[17]  2.05
| 19> radius[18]  2.184
| 20> radius[22]  2.261
| 21> radius[26]  2.195
| 22> radius[27]  2.153
| 23> radius[31]  2.172
| 24> radius[32]  2.7
| 25> radius[33]  2.148
| 26> radius[34]  2.2
| 27> radius[35]  2.16
| 28> radius[36]  2.354
| 29> radius[49]  2.245
| 30> radius[50]  2.55
| 31> radius[51]  2.402
| 32> radius[53]  2.32
| 33> radius[54]  2.524
| 34> radius[80]  1.978
| 35> radius[82]  2.36
| 36> radius[86]  2.573
| 37> cut_area 0.03571064825863687
| 38> end
| 39>
| 40> ! OPT CPCM BP86 def2-TZVP PAL16
| 41>
| 42> * xyzfile 0 1 cyclohexane_c000.xyz
| 43>
| 44> $new_job
| 45>
| 46> ! CPCM BP86 def2-TZVPD SP PAL16
| 47>
| 48> %base "single_point_tzvpd"
| 49>
| 50> * xyzfile 0 1 geo_opt_tzvp.xyz
| 51>
| 52>                          ****END OF INPUT****
 Total Charge           Charge          ....    0
 Multiplicity           Mult            ....    1
 Number of Electrons    NEL             ....   48
FINAL SINGLE POINT ENERGY      -235.952010513441
                    ***********************HURRAY********************
FINAL SINGLE POINT ENERGY      -235.952010722311

CARTESIAN COORDINATES (ANGSTROEM)
---------------------------------
  C      1.274522    0.758783    0.045552
  C      1.244230   -0.759837    0.276341
  C      0.056015   -1.414933   -0.444445
  C     -1.274532   -0.758864   -0.045384
  C     -1.244270    0.759750   -0.276355
  C     -0.056069    1.414963    0.444321
  H      2.107478    1.213351    0.605970
  H      1.468341    0.957174   -1.024056
  H      1.163120   -0.959240    1.360202
  H      2.190758   -1.215443   -0.056969
  H      0.028158   -2.495541   -0.229856
  H      0.195498   -1.313946   -1.536005
  H     -1.467977   -0.957088    1.024322
  H     -2.107652   -1.213438   -0.605538
  H     -1.163153    0.958960   -1.360249
  H     -2.190775    1.215428    0.056916
  H     -0.028073    2.495491    0.229322
  H     -0.195618    1.314433    1.535910

 Multiplicity           Mult            ....    1
 Number of Electrons    NEL             ....   48
 Basis Dimension        Dim             ....  330

ORBITAL ENERGIES
----------------

  NO   OCC          E(Eh)            E(eV)
   0   2.0000      -9.883429      -268.9418
   1   2.0000      -9.883380      -268.9404
   2   2.0000      -9.883371      -268.9402
   3   2.0000      -9.883282      -268.9378
   4   2.0000      -9.883272      -268.9375
   5   2.0000      -9.883209      -268.9358
   6   2.0000      -0.747651       -20.3446
   7   2.0000      -0.663590       -18.0572
   8   2.0000      -0.663554       -18.0562
   9   2.0000      -0.539073       -14.6689
  10   2.0000      -0.539065       -14.6687
  11   2.0000      -0.486873       -13.2485
  12   2.0000      -0.425108       -11.5678
  13   2.0000      -0.387374       -10.5410
  14   2.0000      -0.382884       -10.4188
  15   2.0000      -0.382849       -10.4178
  16   2.0000      -0.329111        -8.9556
  17   2.0000      -0.329048        -8.9538
  18   2.0000      -0.327755        -8.9187
  19   2.0000      -0.293511        -7.9869
  20   2.0000      -0.293500        -7.9865
  21   2.0000      -0.269458        -7.3323
  22   2.0000      -0.255837        -6.9617
  23   2.0000      -0.255825        -6.9614
  24   0.0000       0.004696         0.1278
  25   0.0000       0.020130         0.5478
  26   0.0000       0.027609         0.7513
  27   0.0000       0.027615         0.7515
  28   0.0000       0.048991         1.3331

MULLIKEN ATOMIC CHARGES
-----------------------
   0 C :   -0.533647
   1 C :   -0.534768
   2 C :   -0.532335
   3 C :   -0.533763
   4 C :   -0.534684
   5 C :   -0.532439
   6 H :    0.226747
   7 H :    0.306890
   8 H :    0.307080
   9 H :    0.227081
  10 H :    0.226373
  11 H :    0.306666
  12 H :    0.306851
  13 H :    0.226782
  14 H :    0.307109
  15 H :    0.227061
  16 H :    0.226317
  17 H :    0.306678
Sum of atomic charges:   -0.0000000

LOEWDIN ATOMIC CHARGES
----------------------
   0 C :   -0.220928
   1 C :   -0.220941
   2 C :   -0.220979
   3 C :   -0.220917
   4 C :   -0.220941
   5 C :   -0.220980
   6 H :    0.106849
   7 H :    0.114112
   8 H :    0.114100
   9 H :    0.106831
  10 H :    0.106836
  11 H :    0.114116
  12 H :    0.114113
  13 H :    0.106848
  14 H :    0.114101
  15 H :    0.106830
  16 H :    0.106838
  17 H :    0.114113

  Mayer bond orders larger than 0.100000
B(  0-C ,  1-C ) :   1.0165 B(  0-C ,  5-C ) :   1.0163 B(  0-C ,  6-H ) :   0.9811
B(  0-C ,  7-H ) :   0.9037 B(  1-C ,  2-C ) :   1.0179 B(  1-C ,  8-H ) :   0.9033
B(  1-C ,  9-H ) :   0.9813 B(  2-C ,  3-C ) :   1.0161 B(  2-C , 10-H ) :   0.9813
B(  2-C , 11-H ) :   0.9036 B(  3-C ,  4-C ) :   1.0166 B(  3-C , 12-H ) :   0.9037
B(  3-C , 13-H ) :   0.9810 B(  4-C ,  5-C ) :   1.0179 B(  4-C , 14-H ) :   0.9033
B(  4-C , 15-H ) :   0.9814 B(  5-C , 16-H ) :   0.9813 B(  5-C , 17-H ) :   0.9036

FINAL SINGLE POINT ENERGY      -235.952673176188

DIPOLE MOMENT
-------------

Method             : SCF
Type of density    : Electron Density
Multiplicity       :   1
Irrep              :   0
Energy             :  -235.9526731761877159 Eh
Relativity type    :
Basis              : AO
                                X                 Y                 Z
Electronic contribution:     -0.000227566      -0.000305784       0.000066199
Nuclear contribution   :      0.000251795       0.000337483      -0.000074889
                        -----------------------------------------
Total Dipole Moment    :      0.000024229       0.000031699      -0.000008690
                        -----------------------------------------
Magnitude (a.u.)       :      0.000040834
Magnitude (Debye)      :      0.000103791

Rotational constants in cm-1:             0.142703             0.142661             0.081454
Rotational constants in MHz :          4278.138736          4276.863924          2441.914786

                             ****ORCA TERMINATED NORMALLY****
TOTAL RUN TIME: 0 days 0 hours 0 minutes 31 seconds 7 msec
