                         Program Version 6.0.0  -   RELEASE  -
|  1> %MaxCore 2000
|  2>
|  3> %base "single_point_tzvpd"
|  4>
|  5> %cpcm
|  6> radius[1]  1.3
|  7> radius[2]  1.601
|  8> radius[5]  2.048
|  9> radius[6]  2.0
| 10> radius[7]  1.83
| 11> radius[8]  1.72
| 12> radius[9]  1.72
| 13> radius[10]  1.771
| 14> radius[13]  2.152
| 15> radius[14]  2.2
| 16> radius[15]  2.106
| 17> radius[16]  2.16
| 18> radius[17]  2.05
| 19> radius[18]  2.184
| 20> radius[22]  2.261
| 21> radius[26]  2.195
| 22> radius[27]  2.153
| 23> radius[31]  2.172
| 24> radius[32]  2.7
| 25> radius[33]  2.148
| 26> radius[34]  2.2
| 27> radius[35]  2.16
| 28> radius[36]  2.354
| 29> radius[49]  2.245
| 30> radius[50]  2.55
| 31> radius[51]  2.402
| 32> radius[53]  2.32
| 33> radius[54]  2.524
| 34> radius[80]  1.978
| 35> radius[82]  2.36
| 36> radius[86]  2.573
| 37> cut_area 0.03571064825863687
| 38> end
| 39>
| 40> ! CPCM BP86 def2-TZVPD SP PAL64
| 41>
| 42> %base "single_point_tzvpd"
| 43>
| 44> * xyzfile 0 1 DMDBP_SP_c000.xyz
| 45>
| 46>                          ****END OF INPUT****

CARTESIAN COORDINATES (ANGSTROEM)
---------------------------------
  C      3.599510   -1.212790    2.527680
  C      3.967840   -0.885350    1.087910
  C      4.347820    0.588350    0.959070
  C      4.785170    0.958450   -0.457860
  N      5.125560    2.380630   -0.572620
  C      4.019630    3.305450   -0.769740
  C      6.371990    2.776250   -0.071980
  O      7.178730    1.941500    0.348370
  C      6.728280    4.270040   -0.120930
  C      6.175860    5.009540    1.105480
  O      5.988350    4.395020    2.158510
  N      5.926660    6.383380    1.031100
  C      5.948000    7.183940   -0.186210
  C      5.578040    7.098390    2.269760
  C      4.161820    7.685360    2.317120
  C      3.060450    6.627260    2.268400
  C      1.680350    7.262140    2.376750
  C      8.265650    4.453420   -0.165080
  C      8.916140    3.804610   -1.400940
  C     10.440040    3.946830   -1.386240
  C     11.075360    3.235210   -2.585390
  C     12.589690    3.377420   -2.588280
  H      3.296780   -2.259790    2.620970
  H      2.770630   -0.585090    2.870720
  H      4.452290   -1.044450    3.194100
  H      3.118900   -1.114560    0.433350
  H      4.802780   -1.523050    0.774480
  H      5.157250    0.812970    1.663830
  H      3.495570    1.211650    1.254220
  H      4.000110    0.727310   -1.187300
  H      5.662330    0.364480   -0.743170
  H      3.215110    2.816500   -1.326250
  H      4.339660    4.176940   -1.343890
  H      3.650580    3.632070    0.205720
  H      6.313580    4.673830   -1.044600
  H      6.420160    6.678150   -1.025910
  H      6.494160    8.112280    0.005660
  H      4.916180    7.423700   -0.461240
  H      6.300300    7.918350    2.370920
  H      5.727910    6.457560    3.145170
  H      4.020620    8.405820    1.503150
  H      4.063420    8.254370    3.251300
  H      3.191530    5.913960    3.090150
  H      3.120060    6.063560    1.331410
  H      1.566870    7.800350    3.323660
  H      0.902600    6.493500    2.329650
  H      1.507660    7.969680    1.559080
  H      8.714370    4.033840    0.744650
  H      8.508290    5.523580   -0.161580
  H      8.509740    4.260400   -2.311830
  H      8.673860    2.737520   -1.448070
  H     10.842540    3.520490   -0.458650
  H     10.710950    5.009150   -1.399930
  H     10.675140    3.644360   -3.518350
  H     10.820460    2.168580   -2.562660
  H     12.882850    4.431660   -2.636320
  H     13.018080    2.867760   -3.456120
  H     13.029810    2.940470   -1.685500

 Total Charge           Charge          ....    0
 Multiplicity           Mult            ....    1
 Number of Electrons    NEL             ....  174
 Basis Dimension        Dim             .... 1144

ORBITAL ENERGIES
----------------

  NO   OCC          E(Eh)            E(eV)
   0   2.0000     -18.741858      -509.9919
   1   2.0000     -18.741758      -509.9892
   2   2.0000     -14.036614      -381.9557
   3   2.0000     -14.033100      -381.8601
   4   2.0000      -9.999295      -272.0946
   5   2.0000      -9.994973      -271.9770
   6   2.0000      -9.922479      -270.0044
   7   2.0000      -9.922237      -269.9978
   8   2.0000      -9.921292      -269.9721
   9   2.0000      -9.921239      -269.9706
  10   2.0000      -9.919691      -269.9285
  11   2.0000      -9.897263      -269.3182
  12   2.0000      -9.888661      -269.0842
  13   2.0000      -9.885853      -269.0077
  14   2.0000      -9.885253      -268.9914
  15   2.0000      -9.884706      -268.9765
  16   2.0000      -9.883548      -268.9450
  17   2.0000      -9.882669      -268.9211
  18   2.0000      -9.882173      -268.9076
  19   2.0000      -9.876930      -268.7649
  20   2.0000      -9.876898      -268.7640
  21   2.0000      -9.875435      -268.7243
  22   2.0000      -0.959561       -26.1110
  23   2.0000      -0.950286       -25.8586
  24   2.0000      -0.853807       -23.2333
  25   2.0000      -0.853152       -23.2155
  26   2.0000      -0.743003       -20.2181
  27   2.0000      -0.723879       -19.6977
  28   2.0000      -0.722066       -19.6484
  29   2.0000      -0.710621       -19.3370
  30   2.0000      -0.669536       -18.2190
  31   2.0000      -0.663364       -18.0510
  32   2.0000      -0.655053       -17.8249
  33   2.0000      -0.637808       -17.3556
  34   2.0000      -0.629945       -17.1417
  35   2.0000      -0.597735       -16.2652
  36   2.0000      -0.584799       -15.9132
  37   2.0000      -0.565446       -15.3866
  38   2.0000      -0.531572       -14.4648
  39   2.0000      -0.526244       -14.3198
  40   2.0000      -0.522693       -14.2232
  41   2.0000      -0.516328       -14.0500
  42   2.0000      -0.494764       -13.4632
  43   2.0000      -0.480432       -13.0732
  44   2.0000      -0.460422       -12.5287
  45   2.0000      -0.454292       -12.3619
  46   2.0000      -0.432692       -11.7741
  47   2.0000      -0.428326       -11.6553
  48   2.0000      -0.426108       -11.5950
  49   2.0000      -0.422404       -11.4942
  50   2.0000      -0.416620       -11.3368
  51   2.0000      -0.411060       -11.1855
  52   2.0000      -0.402784       -10.9603
  53   2.0000      -0.390628       -10.6295
  54   2.0000      -0.386848       -10.5267
  55   2.0000      -0.384493       -10.4626
  56   2.0000      -0.375981       -10.2310
  57   2.0000      -0.371631       -10.1126
  58   2.0000      -0.368659       -10.0317
  59   2.0000      -0.364545        -9.9198
  60   2.0000      -0.361889        -9.8475
  61   2.0000      -0.359807        -9.7908
  62   2.0000      -0.353732        -9.6255
  63   2.0000      -0.351173        -9.5559
  64   2.0000      -0.347254        -9.4493
  65   2.0000      -0.341539        -9.2937
  66   2.0000      -0.337511        -9.1841
  67   2.0000      -0.329977        -8.9791
  68   2.0000      -0.324421        -8.8280
  69   2.0000      -0.318162        -8.6576
  70   2.0000      -0.314861        -8.5678
  71   2.0000      -0.309217        -8.4142
  72   2.0000      -0.303515        -8.2591
  73   2.0000      -0.302505        -8.2316
  74   2.0000      -0.299115        -8.1393
  75   2.0000      -0.294169        -8.0047
  76   2.0000      -0.289568        -7.8796
  77   2.0000      -0.287421        -7.8211
  78   2.0000      -0.286345        -7.7918
  79   2.0000      -0.284849        -7.7511
  80   2.0000      -0.282172        -7.6783
  81   2.0000      -0.278634        -7.5820
  82   2.0000      -0.273055        -7.4302
  83   2.0000      -0.226993        -6.1768
  84   2.0000      -0.221950        -6.0396
  85   2.0000      -0.211151        -5.7457
  86   2.0000      -0.207992        -5.6597
  87   0.0000      -0.038165        -1.0385
  88   0.0000      -0.028068        -0.7638
  89   0.0000      -0.003427        -0.0932
  90   0.0000       0.007145         0.1944
  91   0.0000       0.008417         0.2290

MULLIKEN ATOMIC CHARGES
-----------------------
   0 C :   -1.455784
   1 C :   -0.321690
   2 C :   -0.250015
   3 C :   -0.877896
   4 N :    0.286752
   5 C :   -1.157754
   6 C :   -0.711050
   7 O :   -0.732609
   8 C :    1.848219
   9 C :    0.083427
  10 O :   -0.750912
  11 N :    0.244938
  12 C :   -1.213416
  13 C :   -0.902949
  14 C :   -0.672751
  15 C :    0.240446
  16 C :   -1.677742
  17 C :   -1.181605
  18 C :   -0.617563
  19 C :   -0.660897
  20 C :   -0.202527
  21 C :   -1.474975
  22 H :    0.396610
  23 H :    0.362766
  24 H :    0.363874
  25 H :    0.276666
  26 H :    0.297291
  27 H :    0.267132
  28 H :    0.311039
  29 H :    0.306468
  30 H :    0.202370
  31 H :    0.350291
  32 H :    0.333319
  33 H :    0.442525
  34 H :    0.700409
  35 H :    0.501510
  36 H :    0.345707
  37 H :    0.326659
  38 H :    0.339996
  39 H :    0.321537
  40 H :    0.336759
  41 H :    0.305043
  42 H :    0.305919
  43 H :    0.091372
  44 H :    0.382049
  45 H :    0.399229
  46 H :    0.376282
  47 H :    0.186475
  48 H :    0.440421
  49 H :    0.326381
  50 H :    0.208141
  51 H :    0.312963
  52 H :    0.298600
  53 H :    0.314836
  54 H :    0.317607
  55 H :    0.358164
  56 H :    0.401289
  57 H :    0.350653
Sum of atomic charges:   -0.0000000

LOEWDIN ATOMIC CHARGES
----------------------
   0 C :   -0.131960
   1 C :   -0.274402
   2 C :   -0.204984
   3 C :   -0.170364
   4 N :   -0.073304
   5 C :   -0.031342
   6 C :   -0.413689
   7 O :    0.019386
   8 C :   -0.160712
   9 C :   -0.409607
  10 O :    0.013392
  11 N :   -0.066729
  12 C :   -0.030283
  13 C :   -0.163380
  14 C :   -0.199021
  15 C :   -0.272946
  16 C :   -0.128308
  17 C :   -0.149144
  18 C :   -0.208698
  19 C :   -0.230391
  20 C :   -0.283591
  21 C :   -0.135711
  22 H :    0.069725
  23 H :    0.075045
  24 H :    0.075356
  25 H :    0.112974
  26 H :    0.113506
  27 H :    0.111798
  28 H :    0.121176
  29 H :    0.130426
  30 H :    0.123405
  31 H :    0.102429
  32 H :    0.094598
  33 H :    0.091904
  34 H :    0.127726
  35 H :    0.089645
  36 H :    0.102732
  37 H :    0.097119
  38 H :    0.126210
  39 H :    0.116809
  40 H :    0.110669
  41 H :    0.121803
  42 H :    0.112981
  43 H :    0.102335
  44 H :    0.074800
  45 H :    0.070601
  46 H :    0.075481
  47 H :    0.123372
  48 H :    0.125255
  49 H :    0.124532
  50 H :    0.106049
  51 H :    0.119903
  52 H :    0.118624
  53 H :    0.110058
  54 H :    0.110981
  55 H :    0.073451
  56 H :    0.068525
  57 H :    0.073786

  Mayer bond orders larger than 0.100000
B(  0-C ,  1-C ) :   0.4930 B(  0-C ,  2-C ) :   0.2200 B(  0-C , 22-H ) :   0.8973
B(  0-C , 23-H ) :   0.9347 B(  0-C , 24-H ) :   0.9375 B(  1-C ,  2-C ) :   0.4953
B(  1-C ,  3-C ) :   0.3954 B(  1-C , 25-H ) :   0.9475 B(  1-C , 26-H ) :   0.9322
B(  2-C ,  3-C ) :   0.4539 B(  2-C , 27-H ) :   0.9841 B(  2-C , 28-H ) :   0.9292
B(  3-C ,  4-N ) :   0.9491 B(  3-C ,  6-C ) :  -0.1586 B(  3-C , 29-H ) :   0.8820
B(  3-C , 30-H ) :   0.9642 B(  4-N ,  5-C ) :   0.7912 B(  4-N ,  6-C ) :   0.8930
B(  4-N ,  8-C ) :   0.2435 B(  5-C ,  6-C ) :  -0.1409 B(  5-C ,  8-C ) :   0.1578
B(  5-C , 31-H ) :   0.8594 B(  5-C , 32-H ) :   0.9374 B(  5-C , 33-H ) :   0.7211
B(  6-C ,  7-O ) :   1.3161 B(  6-C ,  8-C ) :  -0.2369 B(  6-C ,  9-C ) :   0.4734
B(  6-C , 17-C ) :  -0.1990 B(  6-C , 18-C ) :   0.3374 B(  6-C , 34-H ) :  -0.3255
B(  6-C , 47-H ) :  -0.1594 B(  7-O ,  8-C ) :  -0.2402 B(  8-C ,  9-C ) :   0.1039
B(  8-C , 10-O ) :  -0.2050 B(  8-C , 12-C ) :   0.1511 B(  8-C , 17-C ) :  -0.2074
B(  8-C , 18-C ) :   0.1992 B(  8-C , 34-H ) :   0.6974 B(  9-C , 10-O ) :   1.2013
B(  9-C , 11-N ) :   1.1274 B(  9-C , 12-C ) :  -0.2469 B(  9-C , 13-C ) :  -0.1092
B(  9-C , 17-C ) :   0.6143 B( 10-O , 11-N ) :   0.1160 B( 11-N , 12-C ) :   0.8360
B( 11-N , 13-C ) :   1.1146 B( 11-N , 17-C ) :   0.1079 B( 12-C , 35-H ) :   0.7897
B( 12-C , 36-H ) :   0.8921 B( 12-C , 37-H ) :   0.9207 B( 13-C , 14-C ) :   1.0538
B( 13-C , 38-H ) :   0.7976 B( 13-C , 39-H ) :   0.8496 B( 14-C , 15-C ) :   0.6791
B( 14-C , 16-C ) :   0.2816 B( 14-C , 40-H ) :   0.8554 B( 14-C , 41-H ) :   0.9146
B( 15-C , 16-C ) :   0.2628 B( 15-C , 42-H ) :   0.9342 B( 15-C , 43-H ) :   1.0029
B( 15-C , 44-H ) :  -0.1031 B( 16-C , 43-H ) :   0.1064 B( 16-C , 44-H ) :   0.9342
B( 16-C , 45-H ) :   0.9079 B( 16-C , 46-H ) :   0.9255 B( 17-C , 18-C ) :   0.4578
B( 17-C , 19-C ) :   0.4150 B( 17-C , 34-H ) :  -0.3400 B( 17-C , 47-H ) :   0.9941
B( 17-C , 48-H ) :   0.7078 B( 18-C , 19-C ) :   0.4763 B( 18-C , 20-C ) :   0.2517
B( 18-C , 34-H ) :  -0.1207 B( 18-C , 47-H ) :  -0.1277 B( 18-C , 49-H ) :   0.9075
B( 18-C , 50-H ) :   0.9665 B( 19-C , 20-C ) :   0.5196 B( 19-C , 21-C ) :   0.2451
B( 19-C , 51-H ) :   0.9187 B( 19-C , 52-H ) :   0.9506 B( 20-C , 21-C ) :   0.4436
B( 20-C , 50-H ) :   0.1039 B( 20-C , 53-H ) :   0.8944 B( 20-C , 54-H ) :   0.8999
B( 21-C , 55-H ) :   0.9328 B( 21-C , 56-H ) :   0.9056 B( 21-C , 57-H ) :   0.9444

FINAL SINGLE POINT ENERGY      -967.953607843766

DIPOLE MOMENT
-------------

Method             : SCF
Type of density    : Electron Density
Multiplicity       :   1
Irrep              :   0
Energy             :  -967.9536078437661217 Eh
Relativity type    :
Basis              : AO
                                X                 Y                 Z
Electronic contribution:      1.330183925       0.307920076       2.281729294
Nuclear contribution   :     -2.997202132       2.083809789      -4.347381489
                        -----------------------------------------
Total Dipole Moment    :     -1.667018207       2.391729865      -2.065652195
                        -----------------------------------------
Magnitude (a.u.)       :      3.572987607
Magnitude (Debye)      :      9.081812754

Rotational constants in cm-1:             0.007469             0.005465             0.003466
Rotational constants in MHz :           223.916987           163.847094           103.911135

                             ****ORCA TERMINATED NORMALLY****
TOTAL RUN TIME: 0 days 0 hours 1 minutes 44 seconds 284 msec
