                         Program Version 6.0.0  -   RELEASE  -
|  1> %MaxCore 2000
|  2>
|  3> %base "single_point_tzvpd"
|  4>
|  5> %cpcm
|  6> radius[1]  1.3
|  7> radius[2]  1.601
|  8> radius[5]  2.048
|  9> radius[6]  2.0
| 10> radius[7]  1.83
| 11> radius[8]  1.72
| 12> radius[9]  1.72
| 13> radius[10]  1.771
| 14> radius[13]  2.152
| 15> radius[14]  2.2
| 16> radius[15]  2.106
| 17> radius[16]  2.16
| 18> radius[17]  2.05
| 19> radius[18]  2.184
| 20> radius[22]  2.261
| 21> radius[26]  2.195
| 22> radius[27]  2.153
| 23> radius[31]  2.172
| 24> radius[32]  2.7
| 25> radius[33]  2.148
| 26> radius[34]  2.2
| 27> radius[35]  2.16
| 28> radius[36]  2.354
| 29> radius[49]  2.245
| 30> radius[50]  2.55
| 31> radius[51]  2.402
| 32> radius[53]  2.32
| 33> radius[54]  2.524
| 34> radius[80]  1.978
| 35> radius[82]  2.36
| 36> radius[86]  2.573
| 37> cut_area 0.03571064825863687
| 38> end
| 39>
| 40> ! CPCM BP86 def2-TZVPD SP PAL64
| 41>
| 42> %base "single_point_tzvpd"
| 43>
| 44> * xyzfile 0 1 DMDOH_c000.xyz
| 45>
| 46>                          ****END OF INPUT****

CARTESIAN COORDINATES (ANGSTROEM)
---------------------------------
  C     55.920000   49.700000   46.280000
  H     56.470000   50.010000   47.180000
  C     52.090000   53.940000   47.360000
  H     53.030000   54.490000   47.250000
  H     51.270000   54.480000   46.850000
  C     51.590000   54.000000   48.770000
  H     50.590000   53.560000   48.800000
  H     51.420000   55.000000   49.190000
  C     52.070000   52.470000   46.740000
  H     52.770000   51.710000   47.100000
  H     51.130000   51.990000   47.060000
  C     52.010000   52.350000   45.190000
  H     51.370000   53.130000   44.750000
  H     51.620000   51.390000   44.840000
  C     53.410000   52.290000   44.670000
  H     53.350000   52.190000   43.580000
  H     53.870000   53.240000   44.950000
  C     54.050000   49.910000   43.890000
  H     53.010000   49.960000   43.540000
  H     54.390000   48.900000   44.160000
  H     54.770000   50.250000   43.130000
  C     52.870000   48.230000   48.320000
  H     52.580000   47.960000   49.340000
  H     52.750000   47.180000   48.000000
  C     51.670000   48.890000   47.620000
  H     51.340000   49.780000   48.180000
  H     51.820000   49.140000   46.560000
  C     50.280000   48.030000   47.580000
  H     49.970000   47.780000   48.610000
  H     50.380000   47.050000   47.110000
  C     49.110000   48.690000   46.830000
  H     48.970000   49.660000   47.320000
  H     49.430000   48.970000   45.820000
  C     47.890000   47.690000   46.740000
  H     48.300000   46.670000   46.650000
  H     47.230000   48.000000   45.920000
  C     54.470000   50.210000   48.870000
  H     53.920000   50.160000   49.820000
  H     54.270000   51.160000   48.360000
  H     55.540000   50.190000   49.120000
  C     56.880000   49.030000   45.350000
  H     56.410000   48.710000   44.410000
  H     57.540000   49.830000   44.990000
  C     57.720000   47.850000   46.040000
  H     58.290000   47.390000   45.220000
  H     57.020000   47.140000   46.510000
  C     59.480000   47.560000   47.770000
  H     60.320000   48.110000   48.210000
  H     59.700000   46.690000   47.130000
  C     58.620000   47.060000   49.000000
  H     58.920000   47.530000   49.950000
  H     57.610000   47.490000   49.050000
  C     58.690000   45.540000   49.360000
  H     59.750000   45.390000   49.580000
  H     58.350000   45.120000   48.400000
  C     57.950000   45.060000   50.550000
  H     58.060000   45.700000   51.440000
  H     56.850000   45.100000   50.460000
  C     58.390000   43.560000   50.920000
  H     59.450000   43.390000   51.120000
  H     58.120000   42.890000   50.100000
  C     57.430000   43.080000   52.170000
  H     56.350000   43.080000   51.990000
  H     57.730000   42.070000   52.480000
  H     57.510000   43.850000   52.940000
  C     52.490000   53.280000   49.750000
  H     52.340000   52.220000   49.490000
  H     53.530000   53.470000   49.470000
  C     52.340000   53.510000   51.340000
  H     51.260000   53.600000   51.490000
  H     52.820000   54.440000   51.670000
  C     52.780000   52.290000   52.160000
  H     52.700000   52.560000   53.220000
  H     53.840000   52.010000   52.070000
  H     52.070000   51.460000   52.180000
  C     47.080000   47.830000   47.970000
  H     47.490000   47.130000   48.710000
  H     47.000000   48.840000   48.390000
  C     45.760000   47.270000   47.870000
  H     45.170000   47.870000   47.180000
  H     45.170000   47.260000   48.800000
  C     45.450000   45.730000   47.220000
  H     44.370000   45.650000   47.040000
  H     45.880000   44.950000   47.850000
  H     45.970000   45.660000   46.250000
  C     54.880000   48.730000   46.930000
  O     54.630000   47.710000   46.280000
  N     54.120000   49.020000   48.030000
  N     54.210000   51.010000   44.870000
  C     55.250000   51.030000   45.850000
  O     55.540000   51.930000   46.530000
  O     58.630000   48.410000   46.960000

 Total Charge           Charge          ....    0
 Multiplicity           Mult            ....    1
 Number of Electrons    NEL             ....  270
 Basis Dimension        Dim             .... 1789

ORBITAL ENERGIES
----------------

  NO   OCC          E(Eh)            E(eV)
   0   2.0000     -18.769904      -510.7551
   1   2.0000     -18.746347      -510.1140
   2   2.0000     -18.732906      -509.7483
   3   2.0000     -14.044106      -382.1596
   4   2.0000     -14.033584      -381.8732
   5   2.0000      -9.993401      -271.9343
   6   2.0000      -9.992049      -271.8975
   7   2.0000      -9.946131      -270.6480
   8   2.0000      -9.943548      -270.5777
   9   2.0000      -9.933711      -270.3100
  10   2.0000      -9.925360      -270.0828
  11   2.0000      -9.923601      -270.0349
  12   2.0000      -9.923582      -270.0344
  13   2.0000      -9.914248      -269.7804
  14   2.0000      -9.901957      -269.4460
  15   2.0000      -9.896893      -269.3081
  16   2.0000      -9.895349      -269.2661
  17   2.0000      -9.891712      -269.1672
  18   2.0000      -9.891441      -269.1598
  19   2.0000      -9.889473      -269.1062
  20   2.0000      -9.889135      -269.0970
  21   2.0000      -9.889114      -269.0965
  22   2.0000      -9.888762      -269.0869
  23   2.0000      -9.885998      -269.0117
  24   2.0000      -9.885883      -269.0085
  25   2.0000      -9.885253      -268.9914
  26   2.0000      -9.884953      -268.9833
  27   2.0000      -9.884141      -268.9612
  28   2.0000      -9.883740      -268.9502
  29   2.0000      -9.883333      -268.9392
  30   2.0000      -9.879550      -268.8362
  31   2.0000      -9.878856      -268.8173
  32   2.0000      -9.878534      -268.8086
  33   2.0000      -9.873746      -268.6783
  34   2.0000      -0.990774       -26.9603
  35   2.0000      -0.952128       -25.9087
  36   2.0000      -0.941536       -25.6205
  37   2.0000      -0.844865       -22.9900
  38   2.0000      -0.842910       -22.9368
  39   2.0000      -0.741144       -20.1675
  40   2.0000      -0.736544       -20.0424
  41   2.0000      -0.731077       -19.8936
  42   2.0000      -0.723023       -19.6745
  43   2.0000      -0.709161       -19.2973
  44   2.0000      -0.707734       -19.2584
  45   2.0000      -0.683258       -18.5924
  46   2.0000      -0.680392       -18.5144
  47   2.0000      -0.673688       -18.3320
  48   2.0000      -0.651829       -17.7372
  49   2.0000      -0.636914       -17.3313
  50   2.0000      -0.634137       -17.2558
  51   2.0000      -0.627282       -17.0692
  52   2.0000      -0.623982       -16.9794
  53   2.0000      -0.612487       -16.6666
  54   2.0000      -0.591733       -16.1019
  55   2.0000      -0.589108       -16.0305
  56   2.0000      -0.574664       -15.6374
  57   2.0000      -0.552976       -15.0472
  58   2.0000      -0.543735       -14.7958
  59   2.0000      -0.539528       -14.6813
  60   2.0000      -0.528311       -14.3761
  61   2.0000      -0.527260       -14.3475
  62   2.0000      -0.520660       -14.1679
  63   2.0000      -0.517942       -14.0939
  64   2.0000      -0.504455       -13.7269
  65   2.0000      -0.497371       -13.5341
  66   2.0000      -0.493390       -13.4258
  67   2.0000      -0.483509       -13.1569
  68   2.0000      -0.470728       -12.8092
  69   2.0000      -0.444291       -12.0898
  70   2.0000      -0.440099       -11.9757
  71   2.0000      -0.437293       -11.8994
  72   2.0000      -0.430891       -11.7251
  73   2.0000      -0.430103       -11.7037
  74   2.0000      -0.424080       -11.5398
  75   2.0000      -0.424019       -11.5382
  76   2.0000      -0.414708       -11.2848
  77   2.0000      -0.410255       -11.1636
  78   2.0000      -0.406833       -11.0705
  79   2.0000      -0.406293       -11.0558
  80   2.0000      -0.402768       -10.9599
  81   2.0000      -0.398965       -10.8564
  82   2.0000      -0.394387       -10.7318
  83   2.0000      -0.392639       -10.6843
  84   2.0000      -0.384066       -10.4510
  85   2.0000      -0.380405       -10.3513
  86   2.0000      -0.378082       -10.2881
  87   2.0000      -0.375971       -10.2307
  88   2.0000      -0.372591       -10.1387
  89   2.0000      -0.371378       -10.1057
  90   2.0000      -0.368840       -10.0367
  91   2.0000      -0.364873        -9.9287
  92   2.0000      -0.361265        -9.8305
  93   2.0000      -0.359648        -9.7865
  94   2.0000      -0.356029        -9.6880
  95   2.0000      -0.355614        -9.6767
  96   2.0000      -0.353055        -9.6071
  97   2.0000      -0.349281        -9.5044
  98   2.0000      -0.344329        -9.3697
  99   2.0000      -0.343231        -9.3398
 100   2.0000      -0.340488        -9.2652
 101   2.0000      -0.334986        -9.1154
 102   2.0000      -0.332618        -9.0510
 103   2.0000      -0.330181        -8.9847
 104   2.0000      -0.326772        -8.8919
 105   2.0000      -0.323152        -8.7934
 106   2.0000      -0.320704        -8.7268
 107   2.0000      -0.317183        -8.6310
 108   2.0000      -0.314505        -8.5581
 109   2.0000      -0.307754        -8.3744
 110   2.0000      -0.306686        -8.3454
 111   2.0000      -0.302912        -8.2426
 112   2.0000      -0.300816        -8.1856
 113   2.0000      -0.296169        -8.0592
 114   2.0000      -0.294129        -8.0037
 115   2.0000      -0.291679        -7.9370
 116   2.0000      -0.289589        -7.8801
 117   2.0000      -0.285927        -7.7805
 118   2.0000      -0.281263        -7.6535
 119   2.0000      -0.279519        -7.6061
 120   2.0000      -0.275266        -7.4904
 121   2.0000      -0.273872        -7.4524
 122   2.0000      -0.271118        -7.3775
 123   2.0000      -0.269047        -7.3211
 124   2.0000      -0.267872        -7.2892
 125   2.0000      -0.265042        -7.2122
 126   2.0000      -0.261197        -7.1075
 127   2.0000      -0.255280        -6.9465
 128   2.0000      -0.253297        -6.8926
 129   2.0000      -0.252040        -6.8584
 130   2.0000      -0.233583        -6.3561
 131   2.0000      -0.216763        -5.8984
 132   2.0000      -0.209090        -5.6896
 133   2.0000      -0.205720        -5.5979
 134   2.0000      -0.201130        -5.4730
 135   0.0000      -0.046256        -1.2587
 136   0.0000      -0.011265        -0.3065
 137   0.0000      -0.003404        -0.0926
 138   0.0000       0.001447         0.0394
 139   0.0000       0.004433         0.1206

MULLIKEN ATOMIC CHARGES
-----------------------
   0 C :    1.509648
   1 H :    0.329875
   2 C :   -0.377690
   3 H :    0.206519
   4 H :    0.180046
   5 C :   -0.769086
   6 H :    0.317900
   7 H :    0.250270
   8 C :    0.334273
   9 H :   -0.227556
  10 H :    0.138972
  11 C :   -0.577254
  12 H :    0.391761
  13 H :    0.174321
  14 C :   -1.126454
  15 H :    0.502987
  16 H :    0.349800
  17 C :   -1.248807
  18 H :    0.298386
  19 H :    0.451155
  20 H :    0.413856
  21 C :   -1.110620
  22 H :    0.339042
  23 H :    0.274526
  24 C :    0.872299
  25 H :   -0.085386
  26 H :   -0.012684
  27 C :   -1.459980
  28 H :    0.262298
  29 H :    0.419216
  30 C :   -0.246365
  31 H :    0.302961
  32 H :    0.268074
  33 C :   -0.424278
  34 H :    0.223174
  35 H :    0.260218
  36 C :   -1.309139
  37 H :    0.465233
  38 H :    0.397573
  39 H :    0.326564
  40 C :   -0.785292
  41 H :    0.302285
  42 H :    0.482458
  43 C :   -0.665227
  44 H :    0.329680
  45 H :    0.413386
  46 C :   -0.523987
  47 H :    0.235760
  48 H :    0.346399
  49 C :   -0.774834
  50 H :    0.445022
  51 H :    0.341045
  52 C :   -0.247139
  53 H :    0.122452
  54 H :    0.287885
  55 C :   -0.687950
  56 H :    0.395718
  57 H :    0.260671
  58 C :   -0.444383
  59 H :    0.389793
  60 H :    0.299297
  61 C :   -1.355788
  62 H :    0.378370
  63 H :    0.358413
  64 H :    0.351526
  65 C :    0.008992
  66 H :   -0.138906
  67 H :    0.432735
  68 C :   -0.548513
  69 H :    0.250492
  70 H :    0.301673
  71 C :   -1.366739
  72 H :    0.406710
  73 H :    0.327882
  74 H :    0.389183
  75 C :   -0.123587
  76 H :    0.152132
  77 H :    0.228963
  78 C :   -0.849075
  79 H :    0.341175
  80 H :    0.286618
  81 C :   -1.261387
  82 H :    0.369444
  83 H :    0.369360
  84 H :    0.331923
  85 C :    0.038918
  86 O :   -0.837264
  87 N :    0.495087
  88 N :    0.276947
  89 C :   -0.364383
  90 O :   -0.659949
  91 O :   -0.399643
Sum of atomic charges:    0.0000000

LOEWDIN ATOMIC CHARGES
----------------------
   0 C :   -0.168286
   1 H :    0.131340
   2 C :   -0.185609
   3 H :    0.113533
   4 H :    0.114870
   5 C :   -0.271683
   6 H :    0.115148
   7 H :    0.115244
   8 C :   -0.177940
   9 H :    0.072289
  10 H :    0.100843
  11 C :   -0.185234
  12 H :    0.126521
  13 H :    0.102463
  14 C :   -0.170244
  15 H :    0.116154
  16 H :    0.123971
  17 C :   -0.029078
  18 H :    0.099029
  19 H :    0.074831
  20 H :    0.101681
  21 C :   -0.148451
  22 H :    0.128212
  23 H :    0.114018
  24 C :   -0.156591
  25 H :    0.100366
  26 H :    0.106583
  27 C :   -0.198771
  28 H :    0.111400
  29 H :    0.099718
  30 C :   -0.211571
  31 H :    0.106217
  32 H :    0.102006
  33 C :   -0.200338
  34 H :    0.122741
  35 H :    0.117909
  36 C :   -0.018848
  37 H :    0.094390
  38 H :    0.054963
  39 H :    0.099592
  40 C :   -0.111123
  41 H :    0.108959
  42 H :    0.131279
  43 C :   -0.193720
  44 H :    0.123204
  45 H :    0.114314
  46 C :   -0.155070
  47 H :    0.124767
  48 H :    0.121493
  49 C :   -0.181932
  50 H :    0.101067
  51 H :    0.107898
  52 C :   -0.248225
  53 H :    0.119508
  54 H :    0.119693
  55 C :   -0.243422
  56 H :    0.112773
  57 H :    0.115957
  58 C :   -0.197654
  59 H :    0.094536
  60 H :    0.087594
  61 C :   -0.114650
  62 H :    0.058440
  63 H :    0.056899
  64 H :    0.052904
  65 C :   -0.214583
  66 H :    0.090555
  67 H :    0.108835
  68 C :   -0.225179
  69 H :    0.097815
  70 H :    0.103515
  71 C :   -0.144094
  72 H :    0.060666
  73 H :    0.073406
  74 H :    0.073066
  75 C :   -0.309262
  76 H :    0.123312
  77 H :    0.132430
  78 C :   -0.259897
  79 H :    0.090600
  80 H :    0.101620
  81 C :   -0.071189
  82 H :    0.057539
  83 H :    0.051095
  84 H :    0.048600
  85 C :   -0.412266
  86 O :   -0.000042
  87 N :   -0.027026
  88 N :   -0.042984
  89 C :   -0.452547
  90 O :    0.078056
  91 O :   -0.180924

  Mayer bond orders larger than 0.100000
B(  0-C ,  1-H ) :   0.8868 B(  0-C , 17-C ) :   0.1017 B(  0-C , 36-C ) :   0.2156
B(  0-C , 40-C ) :   0.3251 B(  0-C , 43-C ) :   0.3976 B(  0-C , 85-C ) :   0.5672
B(  0-C , 86-O ) :  -0.2353 B(  0-C , 88-N ) :   0.2889 B(  0-C , 90-O ) :  -0.3370
B(  1-H , 40-C ) :  -0.1114 B(  1-H , 85-C ) :  -0.2094 B(  1-H , 89-C ) :  -0.1927
B(  1-H , 90-O ) :   0.1109 B(  2-C ,  3-H ) :   0.8881 B(  2-C ,  4-H ) :   0.9475
B(  2-C ,  5-C ) :   0.9364 B(  2-C ,  8-C ) :   0.2638 B(  2-C ,  9-H ) :   0.1526
B(  2-C , 10-H ) :  -0.1325 B(  2-C , 11-C ) :   0.1237 B(  2-C , 14-C ) :   0.1174
B(  5-C ,  6-H ) :   0.8634 B(  5-C ,  7-H ) :   0.9825 B(  5-C ,  8-C ) :   0.1249
B(  5-C , 10-H ) :   0.1091 B(  5-C , 65-C ) :   0.4839 B(  5-C , 68-C ) :   0.2619
B(  8-C ,  9-H ) :   2.1046 B(  8-C , 10-H ) :   0.7043 B(  8-C , 11-C ) :   0.9745
B(  8-C , 13-H ) :   0.1038 B(  8-C , 36-C ) :   0.1017 B(  8-C , 65-C ) :   0.2023
B(  9-H , 10-H ) :   0.1829 B(  9-H , 65-C ) :   0.1053 B(  9-H , 66-H ) :  -0.1343
B( 11-C , 12-H ) :   0.8120 B( 11-C , 13-H ) :   0.8807 B( 11-C , 14-C ) :   0.9245
B( 14-C , 15-H ) :   0.6493 B( 14-C , 16-H ) :   0.7607 B( 14-C , 88-N ) :   0.8924
B( 14-C , 90-O ) :   0.1094 B( 17-C , 18-H ) :   0.9938 B( 17-C , 19-H ) :   0.7827
B( 17-C , 20-H ) :   0.7775 B( 17-C , 88-N ) :   0.9324 B( 17-C , 89-C ) :  -0.1631
B( 21-C , 22-H ) :   0.9414 B( 21-C , 23-H ) :   1.0453 B( 21-C , 24-C ) :  -0.1422
B( 21-C , 25-H ) :  -0.1005 B( 21-C , 26-H ) :  -0.2232 B( 21-C , 27-C ) :   0.5089
B( 21-C , 36-C ) :  -0.1230 B( 21-C , 85-C ) :  -0.1587 B( 21-C , 87-N ) :   0.9193
B( 22-H , 24-C ) :  -0.1110 B( 24-C , 25-H ) :   1.0746 B( 24-C , 26-H ) :   1.1541
B( 24-C , 27-C ) :   0.2610 B( 25-H , 30-C ) :   0.1633 B( 26-H , 30-C ) :   0.1144
B( 27-C , 28-H ) :   1.0233 B( 27-C , 29-H ) :   0.8102 B( 27-C , 30-C ) :   0.3755
B( 27-C , 32-H ) :  -0.1138 B( 27-C , 33-C ) :   0.3263 B( 27-C , 75-C ) :   0.2350
B( 30-C , 31-H ) :   0.8867 B( 30-C , 32-H ) :   0.9844 B( 30-C , 33-C ) :   0.4219
B( 33-C , 34-H ) :   0.9164 B( 33-C , 35-H ) :   0.9533 B( 33-C , 75-C ) :   0.8071
B( 33-C , 78-C ) :   0.1505 B( 36-C , 37-H ) :   0.6061 B( 36-C , 38-H ) :   0.9073
B( 36-C , 39-H ) :   0.8994 B( 36-C , 87-N ) :   0.8155 B( 37-H , 38-H ) :   0.1079
B( 38-H , 39-H ) :   0.1255 B( 38-H , 65-C ) :   0.1072 B( 38-H , 85-C ) :  -0.1017
B( 40-C , 41-H ) :   0.8738 B( 40-C , 42-H ) :   0.7768 B( 40-C , 43-C ) :   0.7660
B( 40-C , 91-O ) :   0.1672 B( 41-H , 89-C ) :   0.1575 B( 43-C , 44-H ) :   0.7589
B( 43-C , 45-H ) :   0.7652 B( 43-C , 49-C ) :   0.1076 B( 43-C , 91-O ) :   0.6016
B( 46-C , 47-H ) :   0.8979 B( 46-C , 48-H ) :   0.8438 B( 46-C , 49-C ) :   0.7399
B( 46-C , 52-C ) :   0.4118 B( 46-C , 91-O ) :   0.7627 B( 49-C , 50-H ) :   0.7756
B( 49-C , 51-H ) :   1.1047 B( 49-C , 52-C ) :   0.3329 B( 49-C , 55-C ) :   0.2878
B( 49-C , 91-O ) :   0.1540 B( 50-H , 52-C ) :  -0.1353 B( 51-H , 52-C ) :  -0.1001
B( 52-C , 53-H ) :   1.0832 B( 52-C , 54-H ) :   0.8905 B( 52-C , 55-C ) :   0.4610
B( 52-C , 58-C ) :   0.2922 B( 55-C , 56-H ) :   0.8516 B( 55-C , 57-H ) :   1.0419
B( 55-C , 58-C ) :   0.5805 B( 55-C , 61-C ) :   0.2158 B( 58-C , 59-H ) :   0.8570
B( 58-C , 60-H ) :   0.9602 B( 58-C , 61-C ) :   0.6226 B( 61-C , 62-H ) :   0.9060
B( 61-C , 63-H ) :   0.9091 B( 61-C , 64-H ) :   0.9370 B( 65-C , 66-H ) :   1.4493
B( 65-C , 67-H ) :   0.8092 B( 65-C , 68-C ) :   0.5852 B( 66-H , 71-C ) :   0.1409
B( 68-C , 69-H ) :   0.9066 B( 68-C , 70-H ) :   0.8895 B( 68-C , 71-C ) :   0.7761
B( 71-C , 72-H ) :   0.9523 B( 71-C , 73-H ) :   0.9278 B( 71-C , 74-H ) :   0.8571
B( 75-C , 76-H ) :   0.8925 B( 75-C , 77-H ) :   0.8850 B( 75-C , 78-C ) :   0.7666
B( 78-C , 79-H ) :   0.9026 B( 78-C , 80-H ) :   0.9513 B( 78-C , 81-C ) :   0.7198
B( 81-C , 82-H ) :   0.8901 B( 81-C , 83-H ) :   0.9051 B( 81-C , 84-H ) :   0.9518
B( 85-C , 86-O ) :   1.0824 B( 85-C , 87-N ) :   1.2354 B( 85-C , 89-C ) :   0.8281
B( 88-N , 89-C ) :   0.9852 B( 89-C , 90-O ) :   1.4195

FINAL SINGLE POINT ENERGY     -1475.567717801564

DIPOLE MOMENT
-------------

Method             : SCF
Type of density    : Electron Density
Multiplicity       :   1
Irrep              :   0
Energy             : -1475.5677178015644131 Eh
Relativity type    :
Basis              : AO
                                X                 Y                 Z
Electronic contribution:     28.070488943      11.407485025     -21.907051696
Nuclear contribution   :    -29.416178322     -11.393739306      22.125487578
                        -----------------------------------------
Total Dipole Moment    :     -1.345689379       0.013745719       0.218435881
                        -----------------------------------------
Magnitude (a.u.)       :      1.363371953
Magnitude (Debye)      :      3.465416104

Rotational constants in cm-1:             0.003033             0.001861             0.001548
Rotational constants in MHz :            90.926984            55.800182            46.419508

                             ****ORCA TERMINATED NORMALLY****
TOTAL RUN TIME: 0 days 0 hours 2 minutes 41 seconds 766 msec
