                         Program Version 6.0.0  -   RELEASE  -
|  1> %MaxCore 2000
|  2>
|  3> %base "geo_opt_tzvp"
|  4>
|  5> %cpcm
|  6> radius[1]  1.3
|  7> radius[2]  1.601
|  8> radius[5]  2.048
|  9> radius[6]  2.0
| 10> radius[7]  1.83
| 11> radius[8]  1.72
| 12> radius[9]  1.72
| 13> radius[10]  1.771
| 14> radius[13]  2.152
| 15> radius[14]  2.2
| 16> radius[15]  2.106
| 17> radius[16]  2.16
| 18> radius[17]  2.05
| 19> radius[18]  2.184
| 20> radius[22]  2.261
| 21> radius[26]  2.195
| 22> radius[27]  2.153
| 23> radius[31]  2.172
| 24> radius[32]  2.7
| 25> radius[33]  2.148
| 26> radius[34]  2.2
| 27> radius[35]  2.16
| 28> radius[36]  2.354
| 29> radius[49]  2.245
| 30> radius[50]  2.55
| 31> radius[51]  2.402
| 32> radius[53]  2.32
| 33> radius[54]  2.524
| 34> radius[80]  1.978
| 35> radius[82]  2.36
| 36> radius[86]  2.573
| 37> cut_area 0.03571064825863687
| 38> end
| 39>
| 40> ! OPT CPCM BP86 def2-TZVP
| 41>
| 42> * xyzfile 0 1 acetonitrile_c000.xyz
| 43>
| 44> $new_job
| 45>
| 46> ! CPCM BP86 def2-TZVPD SP
| 47>
| 48> %base "single_point_tzvpd"
| 49>
| 50> * xyzfile 0 1 geo_opt_tzvp.xyz
| 51>
| 52>                          ****END OF INPUT****
 Total Charge           Charge          ....    0
 Multiplicity           Mult            ....    1
 Number of Electrons    NEL             ....   22
FINAL SINGLE POINT ENERGY      -132.817452522988
FINAL SINGLE POINT ENERGY      -132.817453335915
                    ***********************HURRAY********************
FINAL SINGLE POINT ENERGY      -132.817453596540

CARTESIAN COORDINATES (ANGSTROEM)
---------------------------------
  C     -0.491082   -0.004041   -0.001665
  C      0.960171    0.007699    0.003281
  N      2.123654    0.017121    0.007215
  H     -0.856061   -0.710240   -0.759802
  H     -0.865279   -0.310678    0.984625
  H     -0.871403    1.000140   -0.233654

 Multiplicity           Mult            ....    1
 Number of Electrons    NEL             ....   22
 Basis Dimension        Dim             ....  138

ORBITAL ENERGIES
----------------

  NO   OCC          E(Eh)            E(eV)
   0   2.0000     -14.003552      -381.0560
   1   2.0000      -9.950329      -270.7622
   2   2.0000      -9.931780      -270.2575
   3   2.0000      -0.836748       -22.7691
   4   2.0000      -0.700387       -19.0585
   5   2.0000      -0.459564       -12.5054
   6   2.0000      -0.407344       -11.0844
   7   2.0000      -0.407332       -11.0841
   8   2.0000      -0.334847        -9.1116
   9   2.0000      -0.303894        -8.2694
  10   2.0000      -0.303887        -8.2692
  11   0.0000      -0.017593        -0.4787
  12   0.0000      -0.017585        -0.4785
  13   0.0000      -0.000304        -0.0083
  14   0.0000       0.046991         1.2787
  15   0.0000       0.086719         2.3597

MULLIKEN ATOMIC CHARGES
-----------------------
   0 C :   -0.844725
   1 C :    0.204965
   2 N :   -0.342004
   3 H :    0.327556
   4 H :    0.327214
   5 H :    0.326994
Sum of atomic charges:    0.0000000

LOEWDIN ATOMIC CHARGES
----------------------
   0 C :   -0.066573
   1 C :   -0.298725
   2 N :    0.066233
   3 H :    0.099688
   4 H :    0.099683
   5 H :    0.099695

  Mayer bond orders larger than 0.100000
B(  0-C ,  1-C ) :   0.9418 B(  0-C ,  2-N ) :   0.1007 B(  0-C ,  3-H ) :   0.8845
B(  0-C ,  4-H ) :   0.8849 B(  0-C ,  5-H ) :   0.8852 B(  1-C ,  2-N ) :   2.2663

FINAL SINGLE POINT ENERGY      -132.817954658386

DIPOLE MOMENT
-------------

Method             : SCF
Type of density    : Electron Density
Multiplicity       :   1
Irrep              :   0
Energy             :  -132.8179546583860144 Eh
Relativity type    :
Basis              : AO
                                X                 Y                 Z
Electronic contribution:      2.585401005       0.020636849       0.008634328
Nuclear contribution   :     -4.671589976      -0.037452160      -0.015909716
                        -----------------------------------------
Total Dipole Moment    :     -2.086188970      -0.016815311      -0.007275388
                        -----------------------------------------
Magnitude (a.u.)       :      2.086269423
Magnitude (Debye)      :      5.302875447

Rotational constants in cm-1:             5.222010             0.307263             0.307262
Rotational constants in MHz :        156551.921032          9211.514500          9211.482240

                             ****ORCA TERMINATED NORMALLY****
TOTAL RUN TIME: 0 days 0 hours 0 minutes 6 seconds 784 msec
