                         Program Version 6.0.0  -   RELEASE  -
|  1> %MaxCore 2000
|  2>
|  3> %base "geo_opt_tzvp"
|  4>
|  5> %cpcm
|  6> radius[1]  1.3
|  7> radius[2]  1.601
|  8> radius[5]  2.048
|  9> radius[6]  2.0
| 10> radius[7]  1.83
| 11> radius[8]  1.72
| 12> radius[9]  1.72
| 13> radius[10]  1.771
| 14> radius[13]  2.152
| 15> radius[14]  2.2
| 16> radius[15]  2.106
| 17> radius[16]  2.16
| 18> radius[17]  2.05
| 19> radius[18]  2.184
| 20> radius[22]  2.261
| 21> radius[26]  2.195
| 22> radius[27]  2.153
| 23> radius[31]  2.172
| 24> radius[32]  2.7
| 25> radius[33]  2.148
| 26> radius[34]  2.2
| 27> radius[35]  2.16
| 28> radius[36]  2.354
| 29> radius[49]  2.245
| 30> radius[50]  2.55
| 31> radius[51]  2.402
| 32> radius[53]  2.32
| 33> radius[54]  2.524
| 34> radius[80]  1.978
| 35> radius[82]  2.36
| 36> radius[86]  2.573
| 37> cut_area 0.03571064825863687
| 38> end
| 39>
| 40> ! OPT CPCM BP86 def2-TZVP
| 41>
| 42> * xyzfile 0 1 chloroform_c000.xyz
| 43>
| 44> $new_job
| 45>
| 46> ! CPCM BP86 def2-TZVPD SP
| 47>
| 48> %base "single_point_tzvpd"
| 49>
| 50> * xyzfile 0 1 geo_opt_tzvp.xyz
| 51>
| 52>                          ****END OF INPUT****
 Total Charge           Charge          ....    0
 Multiplicity           Mult            ....    1
 Number of Electrons    NEL             ....   58
FINAL SINGLE POINT ENERGY     -1419.495814973888
FINAL SINGLE POINT ENERGY     -1419.495853031532
FINAL SINGLE POINT ENERGY     -1419.495856500799
                    ***********************HURRAY********************
FINAL SINGLE POINT ENERGY     -1419.495856554400

CARTESIAN COORDINATES (ANGSTROEM)
---------------------------------
  Cl    -0.992101   -1.394264   -0.383165
  C      0.002866    0.002345    0.112509
  Cl    -0.720645    1.532788   -0.453670
  Cl     1.678711   -0.167151   -0.478567
  H      0.031169    0.026283    1.202893

 Multiplicity           Mult            ....    1
 Number of Electrons    NEL             ....   58
 Basis Dimension        Dim             ....  184

ORBITAL ENERGIES
----------------

  NO   OCC          E(Eh)            E(eV)
   0   2.0000    -100.741312     -2741.3105
   1   2.0000    -100.741289     -2741.3098
   2   2.0000    -100.741273     -2741.3094
   3   2.0000     -10.074129      -274.1310
   4   2.0000      -9.206538      -250.5226
   5   2.0000      -9.206516      -250.5220
   6   2.0000      -9.206499      -250.5216
   7   2.0000      -7.029972      -191.2953
   8   2.0000      -7.029946      -191.2945
   9   2.0000      -7.029931      -191.2941
  10   2.0000      -7.018963      -190.9957
  11   2.0000      -7.018941      -190.9951
  12   2.0000      -7.018925      -190.9947
  13   2.0000      -7.018769      -190.9904
  14   2.0000      -7.018748      -190.9899
  15   2.0000      -7.018731      -190.9894
  16   2.0000      -0.866291       -23.5730
  17   2.0000      -0.773024       -21.0351
  18   2.0000      -0.772994       -21.0342
  19   2.0000      -0.594162       -16.1680
  20   2.0000      -0.459678       -12.5085
  21   2.0000      -0.437423       -11.9029
  22   2.0000      -0.437406       -11.9024
  23   2.0000      -0.321090        -8.7373
  24   2.0000      -0.321084        -8.7371
  25   2.0000      -0.294505        -8.0139
  26   2.0000      -0.294484        -8.0133
  27   2.0000      -0.290043        -7.8925
  28   2.0000      -0.277475        -7.5505
  29   0.0000      -0.083746        -2.2788
  30   0.0000      -0.037896        -1.0312
  31   0.0000      -0.037886        -1.0309
  32   0.0000       0.000846         0.0230
  33   0.0000       0.023673         0.6442

MULLIKEN ATOMIC CHARGES
-----------------------
   0 Cl:   -0.189078
   1 C :    0.201023
   2 Cl:   -0.189124
   3 Cl:   -0.189141
   4 H :    0.366319
Sum of atomic charges:   -0.0000000

LOEWDIN ATOMIC CHARGES
----------------------
   0 Cl:    0.490747
   1 C :   -1.503653
   2 Cl:    0.490694
   3 Cl:    0.490624
   4 H :    0.031587

  Mayer bond orders larger than 0.100000
B(  0-Cl,  1-C ) :   0.9234 B(  1-C ,  2-Cl) :   0.9231 B(  1-C ,  3-Cl) :   0.9232
B(  1-C ,  4-H ) :   0.8523

FINAL SINGLE POINT ENERGY     -1419.498387596657

DIPOLE MOMENT
-------------

Method             : SCF
Type of density    : Electron Density
Multiplicity       :   1
Irrep              :   0
Energy             : -1419.4983875966572668 Eh
Relativity type    :
Basis              : AO
                                X                 Y                 Z
Electronic contribution:     -0.029470029      -0.024553311      -1.124854841
Nuclear contribution   :      0.045410627       0.038238606       1.753899271
                        -----------------------------------------
Total Dipole Moment    :      0.015940598       0.013685295       0.629044430
                        -----------------------------------------
Magnitude (a.u.)       :      0.629395174
Magnitude (Debye)      :      1.599795394

Rotational constants in cm-1:             0.105982             0.105956             0.054988
Rotational constants in MHz :          3177.252996          3176.494541          1648.490479

                             ****ORCA TERMINATED NORMALLY****
TOTAL RUN TIME: 0 days 0 hours 0 minutes 12 seconds 567 msec
