                         Program Version 6.0.0  -   RELEASE  -
|  1> %MaxCore 2000
|  2>
|  3> %base "geo_opt_tzvp"
|  4>
|  5> %cpcm
|  6> radius[1]  1.3
|  7> radius[2]  1.601
|  8> radius[5]  2.048
|  9> radius[6]  2.0
| 10> radius[7]  1.83
| 11> radius[8]  1.72
| 12> radius[9]  1.72
| 13> radius[10]  1.771
| 14> radius[13]  2.152
| 15> radius[14]  2.2
| 16> radius[15]  2.106
| 17> radius[16]  2.16
| 18> radius[17]  2.05
| 19> radius[18]  2.184
| 20> radius[22]  2.261
| 21> radius[26]  2.195
| 22> radius[27]  2.153
| 23> radius[31]  2.172
| 24> radius[32]  2.7
| 25> radius[33]  2.148
| 26> radius[34]  2.2
| 27> radius[35]  2.16
| 28> radius[36]  2.354
| 29> radius[49]  2.245
| 30> radius[50]  2.55
| 31> radius[51]  2.402
| 32> radius[53]  2.32
| 33> radius[54]  2.524
| 34> radius[80]  1.978
| 35> radius[82]  2.36
| 36> radius[86]  2.573
| 37> cut_area 0.03571064825863687
| 38> end
| 39>
| 40> ! OPT CPCM BP86 def2-TZVP PAL64
| 41>
| 42> * xyzfile 0 1 HEPTA_c000.xyz
| 43>
| 44> $new_job
| 45>
| 46> ! CPCM BP86 def2-TZVPD SP PAL64
| 47>
| 48> %base "single_point_tzvpd"
| 49>
| 50> * xyzfile 0 1 geo_opt_tzvp.xyz
| 51>
| 52>                          ****END OF INPUT****
 Total Charge           Charge          ....    0
 Multiplicity           Mult            ....    1
 Number of Electrons    NEL             ....   58
FINAL SINGLE POINT ENERGY      -276.481363502454
                    ***********************HURRAY********************
FINAL SINGLE POINT ENERGY      -276.481364142374

CARTESIAN COORDINATES (ANGSTROEM)
---------------------------------
  C      0.821502   -0.032393    0.052615
  C      2.352972   -0.043249    0.010905
  C      2.917777   -0.482653   -1.345240
  C      4.449912   -0.497575   -1.399746
  C      5.013013   -0.938312   -2.755863
  C      6.545342   -0.957003   -2.810256
  C      7.097255   -1.396031   -4.170318
  H      0.446058    0.281767    1.037880
  H      0.413327   -1.033265   -0.158290
  H      0.409735    0.659235   -0.699025
  H      2.738243   -0.715182    0.797299
  H      2.735999    0.963159    0.252944
  H      2.531651    0.188877   -2.133193
  H      2.534777   -1.490399   -1.587132
  H      4.835058   -1.168815   -0.611218
  H      4.832219    0.510378   -1.158192
  H      4.630667   -0.265963   -3.544943
  H      4.629462   -1.945471   -2.999319
  H      6.926711   -1.630254   -2.023076
  H      6.928214    0.048697   -2.564726
  H      6.756402   -2.411258   -4.426913
  H      8.197450   -1.400644   -4.177100
  H      6.760104   -0.719575   -4.971284

 Multiplicity           Mult            ....    1
 Number of Electrons    NEL             ....   58
 Basis Dimension        Dim             ....  403

ORBITAL ENERGIES
----------------

  NO   OCC          E(Eh)            E(eV)
   0   2.0000      -9.885896      -269.0089
   1   2.0000      -9.885879      -269.0084
   2   2.0000      -9.883594      -268.9463
   3   2.0000      -9.883505      -268.9438
   4   2.0000      -9.883438      -268.9420
   5   2.0000      -9.879439      -268.8332
   6   2.0000      -9.879436      -268.8331
   7   2.0000      -0.730330       -19.8733
   8   2.0000      -0.702931       -19.1277
   9   2.0000      -0.659016       -17.9327
  10   2.0000      -0.603342       -16.4178
  11   2.0000      -0.545660       -14.8482
  12   2.0000      -0.512177       -13.9370
  13   2.0000      -0.511072       -13.9070
  14   2.0000      -0.427631       -11.6364
  15   2.0000      -0.403231       -10.9725
  16   2.0000      -0.383900       -10.4465
  17   2.0000      -0.377931       -10.2840
  18   2.0000      -0.367008        -9.9868
  19   2.0000      -0.352871        -9.6021
  20   2.0000      -0.327191        -8.9033
  21   2.0000      -0.326997        -8.8980
  22   2.0000      -0.313371        -8.5272
  23   2.0000      -0.294725        -8.0199
  24   2.0000      -0.292300        -7.9539
  25   2.0000      -0.280619        -7.6360
  26   2.0000      -0.277673        -7.5559
  27   2.0000      -0.274318        -7.4646
  28   2.0000      -0.265807        -7.2330
  29   0.0000       0.006751         0.1837
  30   0.0000       0.013187         0.3589
  31   0.0000       0.020766         0.5651
  32   0.0000       0.028826         0.7844
  33   0.0000       0.035789         0.9739

MULLIKEN ATOMIC CHARGES
-----------------------
   0 C :   -1.407472
   1 C :   -0.242673
   2 C :   -0.579680
   3 C :   -0.625728
   4 C :   -0.579988
   5 C :   -0.243086
   6 C :   -1.408440
   7 H :    0.386884
   8 H :    0.343518
   9 H :    0.343750
  10 H :    0.294851
  11 H :    0.296163
  12 H :    0.292978
  13 H :    0.294463
  14 H :    0.289244
  15 H :    0.291654
  16 H :    0.292153
  17 H :    0.294407
  18 H :    0.296381
  19 H :    0.296250
  20 H :    0.343533
  21 H :    0.387311
  22 H :    0.343525
Sum of atomic charges:   -0.0000000

LOEWDIN ATOMIC CHARGES
----------------------
   0 C :   -0.135385
   1 C :   -0.287505
   2 C :   -0.246793
   3 C :   -0.239001
   4 C :   -0.246768
   5 C :   -0.287544
   6 C :   -0.135417
   7 H :    0.069012
   8 H :    0.073115
   9 H :    0.073142
  10 H :    0.109935
  11 H :    0.109904
  12 H :    0.117967
  13 H :    0.117873
  14 H :    0.118249
  15 H :    0.118232
  16 H :    0.117943
  17 H :    0.117902
  18 H :    0.109950
  19 H :    0.109937
  20 H :    0.073090
  21 H :    0.069038
  22 H :    0.073123

  Mayer bond orders larger than 0.100000
B(  0-C ,  1-C ) :   0.4875 B(  0-C ,  2-C ) :   0.2291 B(  0-C ,  7-H ) :   0.9062
B(  0-C ,  8-H ) :   0.9531 B(  0-C ,  9-H ) :   0.9521 B(  1-C ,  2-C ) :   0.4892
B(  1-C ,  3-C ) :   0.3180 B(  1-C , 10-H ) :   0.9431 B(  1-C , 11-H ) :   0.9409
B(  2-C ,  3-C ) :   0.5211 B(  2-C ,  4-C ) :   0.3672 B(  2-C , 12-H ) :   0.9684
B(  2-C , 13-H ) :   0.9677 B(  3-C ,  4-C ) :   0.5200 B(  3-C ,  5-C ) :   0.3182
B(  3-C , 14-H ) :   0.9539 B(  3-C , 15-H ) :   0.9516 B(  4-C ,  5-C ) :   0.4897
B(  4-C ,  6-C ) :   0.2294 B(  4-C , 16-H ) :   0.9697 B(  4-C , 17-H ) :   0.9675
B(  5-C ,  6-C ) :   0.4869 B(  5-C , 18-H ) :   0.9413 B(  5-C , 19-H ) :   0.9414
B(  6-C , 20-H ) :   0.9526 B(  6-C , 21-H ) :   0.9059 B(  6-C , 22-H ) :   0.9530

FINAL SINGLE POINT ENERGY      -276.482343673602

DIPOLE MOMENT
-------------

Method             : SCF
Type of density    : Electron Density
Multiplicity       :   1
Irrep              :   0
Energy             :  -276.4823436736022586 Eh
Relativity type    :
Basis              : AO
                                X                 Y                 Z
Electronic contribution:      0.366618663       0.162959856       0.494713439
Nuclear contribution   :     -0.339817293      -0.151308971      -0.458536578
                        -----------------------------------------
Total Dipole Moment    :      0.026801370       0.011650885       0.036176861
                        -----------------------------------------
Magnitude (a.u.)       :      0.046506148
Magnitude (Debye)      :      0.118209234

Rotational constants in cm-1:             0.400218             0.023970             0.023306
Rotational constants in MHz :         11998.239838           718.610908           698.691775

                             ****ORCA TERMINATED NORMALLY****
TOTAL RUN TIME: 0 days 0 hours 1 minutes 33 seconds 431 msec
