                         Program Version 6.0.0  -   RELEASE  -
|  1> %MaxCore 2000
|  2>
|  3> %base "geo_opt_tzvp"
|  4>
|  5> %cpcm
|  6> radius[1]  1.3
|  7> radius[2]  1.601
|  8> radius[5]  2.048
|  9> radius[6]  2.0
| 10> radius[7]  1.83
| 11> radius[8]  1.72
| 12> radius[9]  1.72
| 13> radius[10]  1.771
| 14> radius[13]  2.152
| 15> radius[14]  2.2
| 16> radius[15]  2.106
| 17> radius[16]  2.16
| 18> radius[17]  2.05
| 19> radius[18]  2.184
| 20> radius[22]  2.261
| 21> radius[26]  2.195
| 22> radius[27]  2.153
| 23> radius[31]  2.172
| 24> radius[32]  2.7
| 25> radius[33]  2.148
| 26> radius[34]  2.2
| 27> radius[35]  2.16
| 28> radius[36]  2.354
| 29> radius[49]  2.245
| 30> radius[50]  2.55
| 31> radius[51]  2.402
| 32> radius[53]  2.32
| 33> radius[54]  2.524
| 34> radius[80]  1.978
| 35> radius[82]  2.36
| 36> radius[86]  2.573
| 37> cut_area 0.03571064825863687
| 38> end
| 39>
| 40> ! OPT CPCM BP86 def2-TZVP
| 41>
| 42> * xyzfile 0 1 ethanol_c000.xyz
| 43>
| 44> $new_job
| 45>
| 46> ! CPCM BP86 def2-TZVPD SP
| 47>
| 48> %base "single_point_tzvpd"
| 49>
| 50> * xyzfile 0 1 geo_opt_tzvp.xyz
| 51>
| 52>                          ****END OF INPUT****
 Total Charge           Charge          ....    0
 Multiplicity           Mult            ....    1
 Number of Electrons    NEL             ....   26
FINAL SINGLE POINT ENERGY      -155.112601643912
FINAL SINGLE POINT ENERGY      -155.112604251050
FINAL SINGLE POINT ENERGY      -155.112605531484
                    ***********************HURRAY********************
FINAL SINGLE POINT ENERGY      -155.112605742121

CARTESIAN COORDINATES (ANGSTROEM)
---------------------------------
  C     -1.020985   -0.092849    0.015611
  C      0.440520    0.313671    0.008871
  O      1.246284   -0.882914   -0.072285
  H     -1.282085   -0.634884   -0.905291
  H     -1.660063    0.799420    0.081774
  H     -1.244062   -0.739578    0.877040
  H      0.652441    0.970907   -0.853163
  H      0.687487    0.873429    0.928535
  H      2.180463   -0.607201   -0.081092

 Multiplicity           Mult            ....    1
 Number of Electrons    NEL             ....   26
 Basis Dimension        Dim             ....  168

ORBITAL ENERGIES
----------------

  NO   OCC          E(Eh)            E(eV)
   0   2.0000     -18.771577      -510.8006
   1   2.0000      -9.938353      -270.4363
   2   2.0000      -9.884087      -268.9597
   3   2.0000      -0.931297       -25.3419
   4   2.0000      -0.678973       -18.4758
   5   2.0000      -0.548221       -14.9179
   6   2.0000      -0.464297       -12.6342
   7   2.0000      -0.413734       -11.2583
   8   2.0000      -0.361361        -9.8331
   9   2.0000      -0.338462        -9.2100
  10   2.0000      -0.321452        -8.7472
  11   2.0000      -0.296701        -8.0736
  12   2.0000      -0.234523        -6.3817
  13   0.0000      -0.000303        -0.0083
  14   0.0000       0.023638         0.6432
  15   0.0000       0.039819         1.0835
  16   0.0000       0.048491         1.3195
  17   0.0000       0.070459         1.9173

MULLIKEN ATOMIC CHARGES
-----------------------
   0 C :   -1.101286
   1 C :   -0.185200
   2 O :   -0.576357
   3 H :    0.310445
   4 H :    0.365974
   5 H :    0.310104
   6 H :    0.271809
   7 H :    0.271591
   8 H :    0.332920
Sum of atomic charges:   -0.0000000

LOEWDIN ATOMIC CHARGES
----------------------
   0 C :   -0.111341
   1 C :   -0.334369
   2 O :   -0.111570
   3 H :    0.076377
   4 H :    0.080718
   5 H :    0.076390
   6 H :    0.113915
   7 H :    0.113804
   8 H :    0.096076

  Mayer bond orders larger than 0.100000
B(  0-C ,  1-C ) :   0.7964 B(  0-C ,  3-H ) :   0.9349 B(  0-C ,  4-H ) :   0.9042
B(  0-C ,  5-H ) :   0.9354 B(  1-C ,  2-O ) :   0.7797 B(  1-C ,  6-H ) :   0.9348
B(  1-C ,  7-H ) :   0.9353 B(  2-O ,  8-H ) :   0.8844

FINAL SINGLE POINT ENERGY      -155.114692235306

DIPOLE MOMENT
-------------

Method             : SCF
Type of density    : Electron Density
Multiplicity       :   1
Irrep              :   0
Energy             :  -155.1146922353060518 Eh
Relativity type    :
Basis              : AO
                                X                 Y                 Z
Electronic contribution:      2.351016879      -1.112862671      -0.107480620
Nuclear contribution   :     -2.112614159       1.931939286       0.143533049
                        -----------------------------------------
Total Dipole Moment    :      0.238402720       0.819076615       0.036052429
                        -----------------------------------------
Magnitude (a.u.)       :      0.853827931
Magnitude (Debye)      :      2.170258127

Rotational constants in cm-1:             1.163282             0.306285             0.267136
Rotational constants in MHz :         34874.322942          9182.193942          8008.524418

                             ****ORCA TERMINATED NORMALLY****
TOTAL RUN TIME: 0 days 0 hours 0 minutes 13 seconds 183 msec
