                         Program Version 6.0.0  -   RELEASE  -
|  1> %MaxCore 2000
|  2>
|  3> %base "geo_opt_tzvp"
|  4>
|  5> %cpcm
|  6> radius[1]  1.3
|  7> radius[2]  1.601
|  8> radius[5]  2.048
|  9> radius[6]  2.0
| 10> radius[7]  1.83
| 11> radius[8]  1.72
| 12> radius[9]  1.72
| 13> radius[10]  1.771
| 14> radius[13]  2.152
| 15> radius[14]  2.2
| 16> radius[15]  2.106
| 17> radius[16]  2.16
| 18> radius[17]  2.05
| 19> radius[18]  2.184
| 20> radius[22]  2.261
| 21> radius[26]  2.195
| 22> radius[27]  2.153
| 23> radius[31]  2.172
| 24> radius[32]  2.7
| 25> radius[33]  2.148
| 26> radius[34]  2.2
| 27> radius[35]  2.16
| 28> radius[36]  2.354
| 29> radius[49]  2.245
| 30> radius[50]  2.55
| 31> radius[51]  2.402
| 32> radius[53]  2.32
| 33> radius[54]  2.524
| 34> radius[80]  1.978
| 35> radius[82]  2.36
| 36> radius[86]  2.573
| 37> cut_area 0.03571064825863687
| 38> end
| 39>
| 40> ! OPT CPCM BP86 def2-TZVP PAL16
| 41>
| 42> * xyzfile 0 1 piperadine_c000.xyz
| 43>
| 44> $new_job
| 45>
| 46> ! CPCM BP86 def2-TZVPD SP PAL16
| 47>
| 48> %base "single_point_tzvpd"
| 49>
| 50> * xyzfile 0 1 geo_opt_tzvp.xyz
| 51>
| 52>                          ****END OF INPUT****
 Total Charge           Charge          ....    0
 Multiplicity           Mult            ....    1
 Number of Electrons    NEL             ....   48
FINAL SINGLE POINT ENERGY      -251.997275409752
FINAL SINGLE POINT ENERGY      -251.997281291149
FINAL SINGLE POINT ENERGY      -251.997284783767
                    ***********************HURRAY********************
FINAL SINGLE POINT ENERGY      -251.997284965947

CARTESIAN COORDINATES (ANGSTROEM)
---------------------------------
  C      0.629579    1.234339   -0.106059
  C     -0.901458    1.127620   -0.044897
  C     -1.366837   -0.255430   -0.508375
  N     -0.724363   -1.300827    0.305992
  C      0.740454   -1.272428    0.155468
  C      1.289972    0.069489    0.646319
  H      0.966937    2.199950    0.302302
  H      0.949041    1.206422   -1.163148
  H     -1.369853    1.904372   -0.669701
  H     -1.244151    1.291351    0.991300
  H     -1.124628   -0.370745   -1.588801
  H     -2.458167   -0.353557   -0.404468
  H     -1.072875   -2.215777    0.010378
  H      1.046975   -1.417500   -0.904892
  H      1.167156   -2.103885    0.736838
  H      2.383225    0.092299    0.514440
  H      1.088994    0.164306    1.727303

 Multiplicity           Mult            ....    1
 Number of Electrons    NEL             ....   48
 Basis Dimension        Dim             ....  321

ORBITAL ENERGIES
----------------

  NO   OCC          E(Eh)            E(eV)
   0   2.0000     -13.984718      -380.5435
   1   2.0000      -9.910652      -269.6826
   2   2.0000      -9.910631      -269.6820
   3   2.0000      -9.886254      -269.0187
   4   2.0000      -9.885666      -269.0027
   5   2.0000      -9.885638      -269.0019
   6   2.0000      -0.826357       -22.4863
   7   2.0000      -0.708198       -19.2711
   8   2.0000      -0.675829       -18.3902
   9   2.0000      -0.568239       -15.4626
  10   2.0000      -0.552884       -15.0447
  11   2.0000      -0.489808       -13.3284
  12   2.0000      -0.456021       -12.4090
  13   2.0000      -0.400181       -10.8895
  14   2.0000      -0.399501       -10.8710
  15   2.0000      -0.372828       -10.1452
  16   2.0000      -0.358910        -9.7664
  17   2.0000      -0.353455        -9.6180
  18   2.0000      -0.335827        -9.1383
  19   2.0000      -0.300353        -8.1730
  20   2.0000      -0.283005        -7.7010
  21   2.0000      -0.270842        -7.3700
  22   2.0000      -0.269301        -7.3281
  23   2.0000      -0.193457        -5.2642
  24   0.0000       0.003410         0.0928
  25   0.0000       0.021478         0.5844
  26   0.0000       0.027676         0.7531
  27   0.0000       0.028485         0.7751
  28   0.0000       0.048097         1.3088

MULLIKEN ATOMIC CHARGES
-----------------------
   0 C :   -0.560687
   1 C :   -0.482157
   2 C :   -0.483879
   3 N :   -0.511543
   4 C :   -0.479142
   5 C :   -0.484807
   6 H :    0.222327
   7 H :    0.309374
   8 H :    0.243534
   9 H :    0.276310
  10 H :    0.317044
  11 H :    0.282295
  12 H :    0.234132
  13 H :    0.316083
  14 H :    0.281649
  15 H :    0.243591
  16 H :    0.275875
Sum of atomic charges:   -0.0000000

LOEWDIN ATOMIC CHARGES
----------------------
   0 C :   -0.219602
   1 C :   -0.211153
   2 C :   -0.253704
   3 N :   -0.088709
   4 C :   -0.253696
   5 C :   -0.211230
   6 H :    0.107714
   7 H :    0.113056
   8 H :    0.110063
   9 H :    0.111389
  10 H :    0.117373
  11 H :    0.113928
  12 H :    0.111749
  13 H :    0.117384
  14 H :    0.113942
  15 H :    0.110084
  16 H :    0.111412

  Mayer bond orders larger than 0.100000
B(  0-C ,  1-C ) :   0.9764 B(  0-C ,  5-C ) :   0.9764 B(  0-C ,  6-H ) :   0.9787
B(  0-C ,  7-H ) :   0.9044 B(  1-C ,  2-C ) :   1.0102 B(  1-C ,  8-H ) :   0.9748
B(  1-C ,  9-H ) :   0.9131 B(  2-C ,  3-N ) :   0.7991 B(  2-C ,  4-C ) :   0.1198
B(  2-C , 10-H ) :   0.8942 B(  2-C , 11-H ) :   0.9309 B(  3-N ,  4-C ) :   0.7979
B(  3-N , 12-H ) :   0.8353 B(  4-C ,  5-C ) :   1.0108 B(  4-C , 13-H ) :   0.8946
B(  4-C , 14-H ) :   0.9311 B(  5-C , 15-H ) :   0.9746 B(  5-C , 16-H ) :   0.9135

FINAL SINGLE POINT ENERGY      -251.998769637437

DIPOLE MOMENT
-------------

Method             : SCF
Type of density    : Electron Density
Multiplicity       :   1
Irrep              :   0
Energy             :  -251.9987696374371353 Eh
Relativity type    :
Basis              : AO
                                X                 Y                 Z
Electronic contribution:     -0.807839008      -1.327395122       0.533460988
Nuclear contribution   :      0.927262774       1.210375058      -1.091439568
                        -----------------------------------------
Total Dipole Moment    :      0.119423766      -0.117020064      -0.557978579
                        -----------------------------------------
Magnitude (a.u.)       :      0.582491052
Magnitude (Debye)      :      1.480574592

Rotational constants in cm-1:             0.150008             0.146686             0.084003
Rotational constants in MHz :          4497.129954          4397.549113          2518.343816

                             ****ORCA TERMINATED NORMALLY****
TOTAL RUN TIME: 0 days 0 hours 0 minutes 50 seconds 585 msec
