                         Program Version 6.0.0  -   RELEASE  -
|  1> %MaxCore 2000
|  2>
|  3> %base "geo_opt_tzvp"
|  4>
|  5> %cpcm
|  6> radius[1]  1.3
|  7> radius[2]  1.601
|  8> radius[5]  2.048
|  9> radius[6]  2.0
| 10> radius[7]  1.83
| 11> radius[8]  1.72
| 12> radius[9]  1.72
| 13> radius[10]  1.771
| 14> radius[13]  2.152
| 15> radius[14]  2.2
| 16> radius[15]  2.106
| 17> radius[16]  2.16
| 18> radius[17]  2.05
| 19> radius[18]  2.184
| 20> radius[22]  2.261
| 21> radius[26]  2.195
| 22> radius[27]  2.153
| 23> radius[31]  2.172
| 24> radius[32]  2.7
| 25> radius[33]  2.148
| 26> radius[34]  2.2
| 27> radius[35]  2.16
| 28> radius[36]  2.354
| 29> radius[49]  2.245
| 30> radius[50]  2.55
| 31> radius[51]  2.402
| 32> radius[53]  2.32
| 33> radius[54]  2.524
| 34> radius[80]  1.978
| 35> radius[82]  2.36
| 36> radius[86]  2.573
| 37> cut_area 0.03571064825863687
| 38> end
| 39>
| 40> ! OPT CPCM BP86 def2-TZVP PAL64
| 41>
| 42> * xyzfile 0 1 HEXAN_c000.xyz
| 43>
| 44> $new_job
| 45>
| 46> ! CPCM BP86 def2-TZVPD SP PAL64
| 47>
| 48> %base "single_point_tzvpd"
| 49>
| 50> * xyzfile 0 1 geo_opt_tzvp.xyz
| 51>
| 52>                          ****END OF INPUT****
 Total Charge           Charge          ....    0
 Multiplicity           Mult            ....    1
 Number of Electrons    NEL             ....   50
FINAL SINGLE POINT ENERGY      -237.156049137466
                    ***********************HURRAY********************
FINAL SINGLE POINT ENERGY      -237.156049461279

CARTESIAN COORDINATES (ANGSTROEM)
---------------------------------
  C      0.981250   -0.029141    0.111423
  C      2.512786   -0.002296    0.086392
  C      3.084850    0.969322   -0.952698
  C      4.616922    1.002292   -0.988086
  C      5.189002    1.975655   -2.025527
  C      6.720541    1.999926   -2.052935
  H      0.602081   -0.732989    0.867251
  H      0.574481   -0.335006   -0.865211
  H      0.571539    0.966091    0.344923
  H      2.895839   -1.017039   -0.118390
  H      2.893022    0.272301    1.085554
  H      2.703203    1.985697   -0.746934
  H      2.703070    0.696230   -1.953007
  H      4.998569   -0.013724   -1.195588
  H      4.998773    1.273696    0.012662
  H      4.808043    2.990515   -1.817491
  H      4.806757    1.704366   -3.024840
  H      7.129404    2.301149   -1.075721
  H      7.099728    2.706192   -2.806493
  H      7.128159    1.004944   -2.291083

 Multiplicity           Mult            ....    1
 Number of Electrons    NEL             ....   50
 Basis Dimension        Dim             ....  348

ORBITAL ENERGIES
----------------

  NO   OCC          E(Eh)            E(eV)
   0   2.0000      -9.885941      -269.0101
   1   2.0000      -9.885940      -269.0101
   2   2.0000      -9.883559      -268.9453
   3   2.0000      -9.883450      -268.9424
   4   2.0000      -9.879447      -268.8334
   5   2.0000      -9.879446      -268.8334
   6   2.0000      -0.727641       -19.8001
   7   2.0000      -0.692198       -18.8357
   8   2.0000      -0.636949       -17.3323
   9   2.0000      -0.571192       -15.5429
  10   2.0000      -0.518103       -14.0983
  11   2.0000      -0.511671       -13.9233
  12   2.0000      -0.425149       -11.5689
  13   2.0000      -0.394130       -10.7248
  14   2.0000      -0.386426       -10.5152
  15   2.0000      -0.372585       -10.1385
  16   2.0000      -0.350487        -9.5372
  17   2.0000      -0.336630        -9.1602
  18   2.0000      -0.332140        -9.0380
  19   2.0000      -0.308068        -8.3829
  20   2.0000      -0.296966        -8.0809
  21   2.0000      -0.282443        -7.6857
  22   2.0000      -0.281565        -7.6618
  23   2.0000      -0.274554        -7.4710
  24   2.0000      -0.270052        -7.3485
  25   0.0000       0.007339         0.1997
  26   0.0000       0.014392         0.3916
  27   0.0000       0.023345         0.6353
  28   0.0000       0.033770         0.9189
  29   0.0000       0.038246         1.0407

MULLIKEN ATOMIC CHARGES
-----------------------
   0 C :   -1.402429
   1 C :   -0.264365
   2 C :   -0.579807
   3 C :   -0.579822
   4 C :   -0.264452
   5 C :   -1.402470
   6 H :    0.383493
   7 H :    0.343667
   8 H :    0.343611
   9 H :    0.295205
  10 H :    0.295119
  11 H :    0.293077
  12 H :    0.292445
  13 H :    0.293081
  14 H :    0.292476
  15 H :    0.295421
  16 H :    0.294961
  17 H :    0.343508
  18 H :    0.383510
  19 H :    0.343772
Sum of atomic charges:   -0.0000000

LOEWDIN ATOMIC CHARGES
----------------------
   0 C :   -0.135412
   1 C :   -0.287821
   2 C :   -0.247803
   3 C :   -0.247807
   4 C :   -0.287826
   5 C :   -0.135416
   6 H :    0.069050
   7 H :    0.073124
   8 H :    0.073125
   9 H :    0.109939
  10 H :    0.109929
  11 H :    0.117943
  12 H :    0.117933
  13 H :    0.117942
  14 H :    0.117935
  15 H :    0.109934
  16 H :    0.109933
  17 H :    0.073126
  18 H :    0.069050
  19 H :    0.073122

  Mayer bond orders larger than 0.100000
B(  0-C ,  1-C ) :   0.4983 B(  0-C ,  2-C ) :   0.2264 B(  0-C ,  6-H ) :   0.9105
B(  0-C ,  7-H ) :   0.9519 B(  0-C ,  8-H ) :   0.9520 B(  1-C ,  2-C ) :   0.5315
B(  1-C ,  3-C ) :   0.3216 B(  1-C ,  9-H ) :   0.9443 B(  1-C , 10-H ) :   0.9444
B(  2-C ,  3-C ) :   0.5476 B(  2-C ,  4-C ) :   0.3216 B(  2-C , 11-H ) :   0.9607
B(  2-C , 12-H ) :   0.9611 B(  3-C ,  4-C ) :   0.5316 B(  3-C ,  5-C ) :   0.2264
B(  3-C , 13-H ) :   0.9608 B(  3-C , 14-H ) :   0.9610 B(  4-C ,  5-C ) :   0.4983
B(  4-C , 15-H ) :   0.9441 B(  4-C , 16-H ) :   0.9445 B(  5-C , 17-H ) :   0.9522
B(  5-C , 18-H ) :   0.9105 B(  5-C , 19-H ) :   0.9518

FINAL SINGLE POINT ENERGY      -237.156878670500

DIPOLE MOMENT
-------------

Method             : SCF
Type of density    : Electron Density
Multiplicity       :   1
Irrep              :   0
Energy             :  -237.1568786704997365 Eh
Relativity type    :
Basis              : AO
                                X                 Y                 Z
Electronic contribution:     -0.000142826       0.000848632       0.000868160
Nuclear contribution   :      0.000144776      -0.000795558      -0.000808585
                        -----------------------------------------
Total Dipole Moment    :      0.000001950       0.000053074       0.000059576
                        -----------------------------------------
Magnitude (a.u.)       :      0.000079811
Magnitude (Debye)      :      0.000202864

Rotational constants in cm-1:             0.484636             0.037505             0.036227
Rotational constants in MHz :         14529.011775          1124.367174          1086.043618

                             ****ORCA TERMINATED NORMALLY****
TOTAL RUN TIME: 0 days 0 hours 1 minutes 26 seconds 379 msec
