                         Program Version 6.0.0  -   RELEASE  -
|  1> %MaxCore 2000
|  2>
|  3> %base "single_point_tzvpd"
|  4>
|  5> %cpcm
|  6> radius[1]  1.3
|  7> radius[2]  1.601
|  8> radius[5]  2.048
|  9> radius[6]  2.0
| 10> radius[7]  1.83
| 11> radius[8]  1.72
| 12> radius[9]  1.72
| 13> radius[10]  1.771
| 14> radius[13]  2.152
| 15> radius[14]  2.2
| 16> radius[15]  2.106
| 17> radius[16]  2.16
| 18> radius[17]  2.05
| 19> radius[18]  2.184
| 20> radius[22]  2.261
| 21> radius[26]  2.195
| 22> radius[27]  2.153
| 23> radius[31]  2.172
| 24> radius[32]  2.7
| 25> radius[33]  2.148
| 26> radius[34]  2.2
| 27> radius[35]  2.16
| 28> radius[36]  2.354
| 29> radius[49]  2.245
| 30> radius[50]  2.55
| 31> radius[51]  2.402
| 32> radius[53]  2.32
| 33> radius[54]  2.524
| 34> radius[80]  1.978
| 35> radius[82]  2.36
| 36> radius[86]  2.573
| 37> cut_area 0.03571064825863687
| 38> end
| 39>
| 40> ! CPCM BP86 def2-TZVPD SP PAL64
| 41>
| 42> %base "single_point_tzvpd"
| 43>
| 44> * xyzfile 0 1 NDODE_c000.xyz
| 45>
| 46>                          ****END OF INPUT****

CARTESIAN COORDINATES (ANGSTROEM)
---------------------------------
  C      0.989280    0.075710   -0.027400
  C      2.508000    0.068680   -0.037280
  C      3.045750   -0.798800   -1.172970
  C      4.572050   -0.807470   -1.186290
  C      5.099080   -1.678440   -2.324100
  C      6.624640   -1.691560   -2.341200
  C      7.148600   -2.560280   -3.481210
  C      8.674030   -2.571840   -3.497870
  C      9.202340   -3.441580   -4.635460
  C     10.728850   -3.449590   -4.649330
  C     11.265420   -4.316670   -5.784350
  C     12.784620   -4.323350   -5.796330
  H      0.618170    0.700270    0.790840
  H      0.594520   -0.936120    0.109200
  H      0.594320    0.474240   -0.967450
  H      2.875570   -0.307950    0.924430
  H      2.875390    1.095220   -0.146800
  H      2.672290   -0.422660   -2.133080
  H      2.673200   -1.825030   -1.061470
  H      4.949410   -1.184500   -0.228130
  H      4.947390    0.216680   -1.302180
  H      4.723400   -1.301070   -3.282870
  H      4.723660   -2.702720   -2.209810
  H      7.000180   -2.071130   -1.383260
  H      7.001460   -0.667940   -2.454460
  H      6.771790   -2.180890   -4.439450
  H      6.772870   -3.584490   -3.367340
  H      9.050500   -2.949270   -2.539090
  H      9.048880   -1.547250   -3.612540
  H      8.824790   -3.064480   -5.593780
  H      8.827740   -4.466110   -4.520980
  H     11.102150   -3.825030   -3.688800
  H     11.099480   -2.423440   -4.761080
  H     10.897020   -3.941810   -6.746340
  H     10.899260   -5.344070   -5.673900
  H     13.178470   -3.311360   -5.933930
  H     13.155070   -4.948230   -6.614120
  H     13.180710   -4.720970   -4.856110

 Total Charge           Charge          ....    0
 Multiplicity           Mult            ....    1
 Number of Electrons    NEL             ....   98
 Basis Dimension        Dim             ....  678

ORBITAL ENERGIES
----------------

  NO   OCC          E(Eh)            E(eV)
   0   2.0000      -9.879240      -268.8278
   1   2.0000      -9.879219      -268.8272
   2   2.0000      -9.876870      -268.7633
   3   2.0000      -9.876768      -268.7605
   4   2.0000      -9.875801      -268.7342
   5   2.0000      -9.875756      -268.7330
   6   2.0000      -9.875349      -268.7219
   7   2.0000      -9.875310      -268.7208
   8   2.0000      -9.875143      -268.7163
   9   2.0000      -9.874984      -268.7120
  10   2.0000      -9.872336      -268.6399
  11   2.0000      -9.872327      -268.6397
  12   2.0000      -0.738379       -20.0923
  13   2.0000      -0.727772       -19.8037
  14   2.0000      -0.709656       -19.3107
  15   2.0000      -0.684541       -18.6273
  16   2.0000      -0.653164       -17.7735
  17   2.0000      -0.616551       -16.7772
  18   2.0000      -0.577035       -15.7019
  19   2.0000      -0.539628       -14.6840
  20   2.0000      -0.517612       -14.0849
  21   2.0000      -0.515248       -14.0206
  22   2.0000      -0.509009       -13.8508
  23   2.0000      -0.505890       -13.7660
  24   2.0000      -0.435745       -11.8572
  25   2.0000      -0.425866       -11.5884
  26   2.0000      -0.409555       -11.1446
  27   2.0000      -0.387936       -10.5563
  28   2.0000      -0.384866       -10.4727
  29   2.0000      -0.384627       -10.4662
  30   2.0000      -0.366849        -9.9825
  31   2.0000      -0.362698        -9.8695
  32   2.0000      -0.359629        -9.7860
  33   2.0000      -0.342241        -9.3129
  34   2.0000      -0.336188        -9.1482
  35   2.0000      -0.322593        -8.7782
  36   2.0000      -0.314243        -8.5510
  37   2.0000      -0.311722        -8.4824
  38   2.0000      -0.301541        -8.2053
  39   2.0000      -0.292842        -7.9686
  40   2.0000      -0.289936        -7.8896
  41   2.0000      -0.285197        -7.7606
  42   2.0000      -0.283215        -7.7067
  43   2.0000      -0.281215        -7.6523
  44   2.0000      -0.277978        -7.5642
  45   2.0000      -0.275900        -7.5076
  46   2.0000      -0.275818        -7.5054
  47   2.0000      -0.272615        -7.4182
  48   2.0000      -0.238112        -6.4793
  49   0.0000       0.005645         0.1536
  50   0.0000       0.009627         0.2620
  51   0.0000       0.016746         0.4557
  52   0.0000       0.016771         0.4564
  53   0.0000       0.027486         0.7479

MULLIKEN ATOMIC CHARGES
-----------------------
   0 C :   -1.438355
   1 C :   -0.198988
   2 C :   -0.554612
   3 C :   -0.616533
   4 C :   -0.639932
   5 C :   -0.616091
   6 C :   -0.613858
   7 C :   -0.639067
   8 C :   -0.617520
   9 C :   -0.553002
  10 C :   -0.198451
  11 C :   -1.439027
  12 H :    0.395050
  13 H :    0.350812
  14 H :    0.350379
  15 H :    0.297503
  16 H :    0.298611
  17 H :    0.297917
  18 H :    0.298443
  19 H :    0.295728
  20 H :    0.296253
  21 H :    0.298125
  22 H :    0.298828
  23 H :    0.293140
  24 H :    0.293351
  25 H :    0.292519
  26 H :    0.293096
  27 H :    0.297348
  28 H :    0.298269
  29 H :    0.295322
  30 H :    0.296764
  31 H :    0.297381
  32 H :    0.298501
  33 H :    0.297741
  34 H :    0.297901
  35 H :    0.350876
  36 H :    0.395502
  37 H :    0.350077
Sum of atomic charges:    0.0000000

LOEWDIN ATOMIC CHARGES
----------------------
   0 C :   -0.137565
   1 C :   -0.289154
   2 C :   -0.244943
   3 C :   -0.236823
   4 C :   -0.236960
   5 C :   -0.236617
   6 C :   -0.236464
   7 C :   -0.237225
   8 C :   -0.237051
   9 C :   -0.245157
  10 C :   -0.289361
  11 C :   -0.137272
  12 H :    0.068102
  13 H :    0.073444
  14 H :    0.073483
  15 H :    0.110507
  16 H :    0.110293
  17 H :    0.117951
  18 H :    0.118317
  19 H :    0.118152
  20 H :    0.118318
  21 H :    0.118254
  22 H :    0.118367
  23 H :    0.118386
  24 H :    0.118311
  25 H :    0.118678
  26 H :    0.118422
  27 H :    0.118470
  28 H :    0.118461
  29 H :    0.118258
  30 H :    0.118257
  31 H :    0.118133
  32 H :    0.118110
  33 H :    0.110526
  34 H :    0.110565
  35 H :    0.073383
  36 H :    0.067882
  37 H :    0.073564

  Mayer bond orders larger than 0.100000
B(  0-C ,  1-C ) :   0.4670 B(  0-C ,  2-C ) :   0.2380 B(  0-C , 12-H ) :   0.9055
B(  0-C , 13-H ) :   0.9455 B(  0-C , 14-H ) :   0.9463 B(  1-C ,  2-C ) :   0.4950
B(  1-C ,  3-C ) :   0.3227 B(  1-C , 15-H ) :   0.9301 B(  1-C , 16-H ) :   0.9300
B(  2-C ,  3-C ) :   0.4791 B(  2-C ,  4-C ) :   0.3978 B(  2-C , 17-H ) :   0.9603
B(  2-C , 18-H ) :   0.9596 B(  3-C ,  4-C ) :   0.4541 B(  3-C ,  5-C ) :   0.4044
B(  3-C , 19-H ) :   0.9571 B(  3-C , 20-H ) :   0.9579 B(  4-C ,  5-C ) :   0.3918
B(  4-C ,  6-C ) :   0.4179 B(  4-C , 21-H ) :   0.9720 B(  4-C , 22-H ) :   0.9714
B(  5-C ,  6-C ) :   0.3670 B(  5-C ,  7-C ) :   0.4183 B(  5-C , 23-H ) :   0.9817
B(  5-C , 24-H ) :   0.9816 B(  6-C ,  7-C ) :   0.3933 B(  6-C ,  8-C ) :   0.4046
B(  6-C , 25-H ) :   0.9817 B(  6-C , 26-H ) :   0.9813 B(  7-C ,  8-C ) :   0.4527
B(  7-C ,  9-C ) :   0.3982 B(  7-C , 27-H ) :   0.9725 B(  7-C , 28-H ) :   0.9719
B(  8-C ,  9-C ) :   0.4776 B(  8-C , 10-C ) :   0.3232 B(  8-C , 29-H ) :   0.9577
B(  8-C , 30-H ) :   0.9574 B(  9-C , 10-C ) :   0.4938 B(  9-C , 11-C ) :   0.2381
B(  9-C , 31-H ) :   0.9606 B(  9-C , 32-H ) :   0.9600 B( 10-C , 11-C ) :   0.4669
B( 10-C , 33-H ) :   0.9299 B( 10-C , 34-H ) :   0.9303 B( 11-C , 35-H ) :   0.9454
B( 11-C , 36-H ) :   0.9052 B( 11-C , 37-H ) :   0.9464

FINAL SINGLE POINT ENERGY      -473.104289560627

DIPOLE MOMENT
-------------

Method             : SCF
Type of density    : Electron Density
Multiplicity       :   1
Irrep              :   0
Energy             :  -473.1042895606273078 Eh
Relativity type    :
Basis              : AO
                                X                 Y                 Z
Electronic contribution:      0.001290229       0.000811055       0.002146821
Nuclear contribution   :     -0.001116656      -0.000422054      -0.002081161
                        -----------------------------------------
Total Dipole Moment    :      0.000173572       0.000389002       0.000065659
                        -----------------------------------------
Magnitude (a.u.)       :      0.000431000
Magnitude (Debye)      :      0.001095515

Rotational constants in cm-1:             0.229772             0.005087             0.005032
Rotational constants in MHz :          6888.385266           152.490295           150.869443

                             ****ORCA TERMINATED NORMALLY****
TOTAL RUN TIME: 0 days 0 hours 0 minutes 49 seconds 374 msec
