                         Program Version 6.0.0  -   RELEASE  -
|  1> %MaxCore 2000
|  2>
|  3> %base "geo_opt_tzvp"
|  4>
|  5> %cpcm
|  6> radius[1]  1.3
|  7> radius[2]  1.601
|  8> radius[5]  2.048
|  9> radius[6]  2.0
| 10> radius[7]  1.83
| 11> radius[8]  1.72
| 12> radius[9]  1.72
| 13> radius[10]  1.771
| 14> radius[13]  2.152
| 15> radius[14]  2.2
| 16> radius[15]  2.106
| 17> radius[16]  2.16
| 18> radius[17]  2.05
| 19> radius[18]  2.184
| 20> radius[22]  2.261
| 21> radius[26]  2.195
| 22> radius[27]  2.153
| 23> radius[31]  2.172
| 24> radius[32]  2.7
| 25> radius[33]  2.148
| 26> radius[34]  2.2
| 27> radius[35]  2.16
| 28> radius[36]  2.354
| 29> radius[49]  2.245
| 30> radius[50]  2.55
| 31> radius[51]  2.402
| 32> radius[53]  2.32
| 33> radius[54]  2.524
| 34> radius[80]  1.978
| 35> radius[82]  2.36
| 36> radius[86]  2.573
| 37> cut_area 0.03571064825863687
| 38> end
| 39>
| 40> ! OPT CPCM BP86 def2-TZVP
| 41>
| 42> * xyzfile 0 1 dichloromethane_c000.xyz
| 43>
| 44> $new_job
| 45>
| 46> ! CPCM BP86 def2-TZVPD SP
| 47>
| 48> %base "single_point_tzvpd"
| 49>
| 50> * xyzfile 0 1 geo_opt_tzvp.xyz
| 51>
| 52>                          ****END OF INPUT****
 Total Charge           Charge          ....    0
 Multiplicity           Mult            ....    1
 Number of Electrons    NEL             ....   42
FINAL SINGLE POINT ENERGY      -959.844993337102
FINAL SINGLE POINT ENERGY      -959.845023396684
FINAL SINGLE POINT ENERGY      -959.845029337752
FINAL SINGLE POINT ENERGY      -959.845030065324
                    ***********************HURRAY********************
FINAL SINGLE POINT ENERGY      -959.845030302920

CARTESIAN COORDINATES (ANGSTROEM)
---------------------------------
  C     -0.001569   -0.157810    0.003885
  Cl     1.495887    0.824383   -0.059514
  Cl    -1.479411    0.855558    0.018443
  H     -0.031357   -0.783027   -0.890310
  H      0.016450   -0.739104    0.927497

 Multiplicity           Mult            ....    1
 Number of Electrons    NEL             ....   42
 Basis Dimension        Dim             ....  147

ORBITAL ENERGIES
----------------

  NO   OCC          E(Eh)            E(eV)
   0   2.0000    -100.728189     -2740.9534
   1   2.0000    -100.728175     -2740.9530
   2   2.0000     -10.010676      -272.4043
   3   2.0000      -9.193418      -250.1656
   4   2.0000      -9.193404      -250.1652
   5   2.0000      -7.016461      -190.9276
   6   2.0000      -7.016446      -190.9272
   7   2.0000      -7.006222      -190.6490
   8   2.0000      -7.006207      -190.6486
   9   2.0000      -7.005651      -190.6334
  10   2.0000      -7.005636      -190.6330
  11   2.0000      -0.825903       -22.4740
  12   2.0000      -0.758562       -20.6415
  13   2.0000      -0.601977       -16.3806
  14   2.0000      -0.440061       -11.9747
  15   2.0000      -0.416574       -11.3355
  16   2.0000      -0.408751       -11.1227
  17   2.0000      -0.297893        -8.1061
  18   2.0000      -0.293769        -7.9938
  19   2.0000      -0.279676        -7.6104
  20   2.0000      -0.271297        -7.3824
  21   0.0000      -0.056166        -1.5283
  22   0.0000      -0.020485        -0.5574
  23   0.0000       0.004036         0.1098
  24   0.0000       0.031623         0.8605
  25   0.0000       0.032664         0.8888

MULLIKEN ATOMIC CHARGES
-----------------------
   0 C :   -0.203238
   1 Cl:   -0.228221
   2 Cl:   -0.228205
   3 H :    0.329580
   4 H :    0.330085
Sum of atomic charges:   -0.0000000

LOEWDIN ATOMIC CHARGES
----------------------
   0 C :   -0.979462
   1 Cl:    0.451140
   2 Cl:    0.451113
   3 H :    0.038618
   4 H :    0.038591

  Mayer bond orders larger than 0.100000
B(  0-C ,  1-Cl) :   0.8764 B(  0-C ,  2-Cl) :   0.8764 B(  0-C ,  3-H ) :   0.8829
B(  0-C ,  4-H ) :   0.8823

FINAL SINGLE POINT ENERGY      -959.847131430951

DIPOLE MOMENT
-------------

Method             : SCF
Type of density    : Electron Density
Multiplicity       :   1
Irrep              :   0
Energy             :  -959.8471314309506397 Eh
Relativity type    :
Basis              : AO
                                X                 Y                 Z
Electronic contribution:      0.022015160       2.234947543      -0.054959160
Nuclear contribution   :     -0.030864264      -3.148837831       0.076960758
                        -----------------------------------------
Total Dipole Moment    :     -0.008849104      -0.913890288       0.022001598
                        -----------------------------------------
Magnitude (a.u.)       :      0.914197919
Magnitude (Debye)      :      2.323706443

Rotational constants in cm-1:             1.048467             0.106214             0.098319
Rotational constants in MHz :         31432.245736          3184.203464          2947.543718

                             ****ORCA TERMINATED NORMALLY****
TOTAL RUN TIME: 0 days 0 hours 0 minutes 10 seconds 450 msec
