                         Program Version 6.0.0  -   RELEASE  -
|  1> %MaxCore 2000
|  2>
|  3> %base "geo_opt_tzvp"
|  4>
|  5> %cpcm
|  6> radius[1]  1.3
|  7> radius[2]  1.601
|  8> radius[5]  2.048
|  9> radius[6]  2.0
| 10> radius[7]  1.83
| 11> radius[8]  1.72
| 12> radius[9]  1.72
| 13> radius[10]  1.771
| 14> radius[13]  2.152
| 15> radius[14]  2.2
| 16> radius[15]  2.106
| 17> radius[16]  2.16
| 18> radius[17]  2.05
| 19> radius[18]  2.184
| 20> radius[22]  2.261
| 21> radius[26]  2.195
| 22> radius[27]  2.153
| 23> radius[31]  2.172
| 24> radius[32]  2.7
| 25> radius[33]  2.148
| 26> radius[34]  2.2
| 27> radius[35]  2.16
| 28> radius[36]  2.354
| 29> radius[49]  2.245
| 30> radius[50]  2.55
| 31> radius[51]  2.402
| 32> radius[53]  2.32
| 33> radius[54]  2.524
| 34> radius[80]  1.978
| 35> radius[82]  2.36
| 36> radius[86]  2.573
| 37> cut_area 0.03571064825863687
| 38> end
| 39>
| 40> ! OPT CPCM BP86 def2-TZVP PAL64
| 41>
| 42> * xyzfile 0 1 OCTAN_c000.xyz
| 43>
| 44> $new_job
| 45>
| 46> ! CPCM BP86 def2-TZVPD SP PAL64
| 47>
| 48> %base "single_point_tzvpd"
| 49>
| 50> * xyzfile 0 1 geo_opt_tzvp.xyz
| 51>
| 52>                          ****END OF INPUT****
 Total Charge           Charge          ....    0
 Multiplicity           Mult            ....    1
 Number of Electrons    NEL             ....   66
FINAL SINGLE POINT ENERGY      -315.806664441975
                    ***********************HURRAY********************
FINAL SINGLE POINT ENERGY      -315.806665150732

CARTESIAN COORDINATES (ANGSTROEM)
---------------------------------
  C      0.921763    0.028819    0.006913
  C      2.453263    0.054249   -0.023680
  C      3.022080    0.855687   -1.200656
  C      4.554294    0.884373   -1.243244
  C      5.122498    1.688180   -2.418892
  C      6.654717    1.714359   -2.463003
  C      7.223793    2.518339   -3.638117
  C      8.755311    2.537480   -3.672555
  H      0.544391   -0.551664    0.861962
  H      0.515018   -0.423851   -0.910951
  H      0.510159    1.047267    0.085929
  H      2.838046   -0.979230   -0.070429
  H      2.833724    0.480190    0.920862
  H      2.639210    1.891072   -1.152231
  H      2.639248    0.431457   -2.146380
  H      4.935879   -0.151257   -1.293283
  H      4.936150    1.306475   -0.296334
  H      4.742610    2.724379   -2.367840
  H      4.739084    1.267275   -3.365709
  H      7.035690    0.678450   -2.515027
  H      7.039349    2.134981   -1.516397
  H      6.843445    3.553205   -3.586191
  H      6.839199    2.097854   -4.583438
  H      9.166369    2.983789   -2.753489
  H      9.132949    3.120692   -4.525625
  H      9.162323    1.517691   -3.757725

 Multiplicity           Mult            ....    1
 Number of Electrons    NEL             ....   66
 Basis Dimension        Dim             ....  458

ORBITAL ENERGIES
----------------

  NO   OCC          E(Eh)            E(eV)
   0   2.0000      -9.885858      -269.0079
   1   2.0000      -9.885857      -269.0078
   2   2.0000      -9.883590      -268.9462
   3   2.0000      -9.883507      -268.9439
   4   2.0000      -9.883419      -268.9415
   5   2.0000      -9.883394      -268.9408
   6   2.0000      -9.879421      -268.8327
   7   2.0000      -9.879420      -268.8327
   8   2.0000      -0.732171       -19.9234
   9   2.0000      -0.710403       -19.3311
  10   2.0000      -0.674941       -18.3661
  11   2.0000      -0.628434       -17.1006
  12   2.0000      -0.575774       -15.6676
  13   2.0000      -0.528338       -14.3768
  14   2.0000      -0.512553       -13.9473
  15   2.0000      -0.508540       -13.8381
  16   2.0000      -0.429314       -11.6822
  17   2.0000      -0.409691       -11.1483
  18   2.0000      -0.387913       -10.5556
  19   2.0000      -0.379580       -10.3289
  20   2.0000      -0.370516       -10.0822
  21   2.0000      -0.365115        -9.9353
  22   2.0000      -0.344022        -9.3613
  23   2.0000      -0.337948        -9.1960
  24   2.0000      -0.311789        -8.4842
  25   2.0000      -0.310392        -8.4462
  26   2.0000      -0.307127        -8.3573
  27   2.0000      -0.287379        -7.8200
  28   2.0000      -0.286443        -7.7945
  29   2.0000      -0.280162        -7.6236
  30   2.0000      -0.275606        -7.4996
  31   2.0000      -0.274186        -7.4610
  32   2.0000      -0.262464        -7.1420
  33   0.0000       0.006372         0.1734
  34   0.0000       0.011884         0.3234
  35   0.0000       0.019634         0.5343
  36   0.0000       0.023773         0.6469
  37   0.0000       0.033980         0.9246

MULLIKEN ATOMIC CHARGES
-----------------------
   0 C :   -1.412109
   1 C :   -0.233052
   2 C :   -0.556755
   3 C :   -0.633364
   4 C :   -0.633428
   5 C :   -0.556830
   6 C :   -0.233087
   7 C :   -1.412026
   8 H :    0.388150
   9 H :    0.343720
  10 H :    0.343558
  11 H :    0.295390
  12 H :    0.296435
  13 H :    0.292138
  14 H :    0.292745
  15 H :    0.291044
  16 H :    0.292132
  17 H :    0.291271
  18 H :    0.291897
  19 H :    0.292301
  20 H :    0.292639
  21 H :    0.295725
  22 H :    0.296086
  23 H :    0.343458
  24 H :    0.388160
  25 H :    0.343802
Sum of atomic charges:    0.0000000

LOEWDIN ATOMIC CHARGES
----------------------
   0 C :   -0.135439
   1 C :   -0.287542
   2 C :   -0.246527
   3 C :   -0.238075
   4 C :   -0.238063
   5 C :   -0.246539
   6 C :   -0.287538
   7 C :   -0.135441
   8 H :    0.069019
   9 H :    0.073109
  10 H :    0.073134
  11 H :    0.109939
  12 H :    0.109942
  13 H :    0.117986
  14 H :    0.117941
  15 H :    0.118259
  16 H :    0.118254
  17 H :    0.118271
  18 H :    0.118241
  19 H :    0.117970
  20 H :    0.117959
  21 H :    0.109944
  22 H :    0.109936
  23 H :    0.073112
  24 H :    0.069018
  25 H :    0.073130

  Mayer bond orders larger than 0.100000
B(  0-C ,  1-C ) :   0.4827 B(  0-C ,  2-C ) :   0.2282 B(  0-C ,  8-H ) :   0.9064
B(  0-C ,  9-H ) :   0.9519 B(  0-C , 10-H ) :   0.9520 B(  1-C ,  2-C ) :   0.4754
B(  1-C ,  3-C ) :   0.3236 B(  1-C , 11-H ) :   0.9409 B(  1-C , 12-H ) :   0.9395
B(  2-C ,  3-C ) :   0.4694 B(  2-C ,  4-C ) :   0.3700 B(  2-C , 13-H ) :   0.9699
B(  2-C , 14-H ) :   0.9685 B(  3-C ,  4-C ) :   0.4976 B(  3-C ,  5-C ) :   0.3701
B(  3-C , 15-H ) :   0.9632 B(  3-C , 16-H ) :   0.9608 B(  4-C ,  5-C ) :   0.4694
B(  4-C ,  6-C ) :   0.3236 B(  4-C , 17-H ) :   0.9627 B(  4-C , 18-H ) :   0.9612
B(  5-C ,  6-C ) :   0.4753 B(  5-C ,  7-C ) :   0.2282 B(  5-C , 19-H ) :   0.9699
B(  5-C , 20-H ) :   0.9686 B(  6-C ,  7-C ) :   0.4828 B(  6-C , 21-H ) :   0.9406
B(  6-C , 22-H ) :   0.9398 B(  7-C , 23-H ) :   0.9522 B(  7-C , 24-H ) :   0.9064
B(  7-C , 25-H ) :   0.9517

FINAL SINGLE POINT ENERGY      -315.807783748699

DIPOLE MOMENT
-------------

Method             : SCF
Type of density    : Electron Density
Multiplicity       :   1
Irrep              :   0
Energy             :  -315.8077837486990234 Eh
Relativity type    :
Basis              : AO
                                X                 Y                 Z
Electronic contribution:     -0.000381065       0.003762814       0.002100256
Nuclear contribution   :      0.000377222      -0.003607147      -0.001987178
                        -----------------------------------------
Total Dipole Moment    :     -0.000003843       0.000155667       0.000113078
                        -----------------------------------------
Magnitude (a.u.)       :      0.000192441
Magnitude (Debye)      :      0.000489147

Rotational constants in cm-1:             0.356017             0.016167             0.015831
Rotational constants in MHz :         10673.134415           484.665346           474.591558

                             ****ORCA TERMINATED NORMALLY****
TOTAL RUN TIME: 0 days 0 hours 1 minutes 39 seconds 834 msec
