                         Program Version 6.0.0  -   RELEASE  -
|  1> %MaxCore 2000
|  2>
|  3> %base "geo_opt_tzvp"
|  4>
|  5> %cpcm
|  6> radius[1]  1.3
|  7> radius[2]  1.601
|  8> radius[5]  2.048
|  9> radius[6]  2.0
| 10> radius[7]  1.83
| 11> radius[8]  1.72
| 12> radius[9]  1.72
| 13> radius[10]  1.771
| 14> radius[13]  2.152
| 15> radius[14]  2.2
| 16> radius[15]  2.106
| 17> radius[16]  2.16
| 18> radius[17]  2.05
| 19> radius[18]  2.184
| 20> radius[22]  2.261
| 21> radius[26]  2.195
| 22> radius[27]  2.153
| 23> radius[31]  2.172
| 24> radius[32]  2.7
| 25> radius[33]  2.148
| 26> radius[34]  2.2
| 27> radius[35]  2.16
| 28> radius[36]  2.354
| 29> radius[49]  2.245
| 30> radius[50]  2.55
| 31> radius[51]  2.402
| 32> radius[53]  2.32
| 33> radius[54]  2.524
| 34> radius[80]  1.978
| 35> radius[82]  2.36
| 36> radius[86]  2.573
| 37> cut_area 0.03571064825863687
| 38> end
| 39>
| 40> ! OPT CPCM BP86 def2-TZVP PAL64
| 41>
| 42> * xyzfile 0 1 DECAN_c000.xyz
| 43>
| 44> $new_job
| 45>
| 46> ! CPCM BP86 def2-TZVPD SP PAL64
| 47>
| 48> %base "single_point_tzvpd"
| 49>
| 50> * xyzfile 0 1 geo_opt_tzvp.xyz
| 51>
| 52>                          ****END OF INPUT****
 Total Charge           Charge          ....    0
 Multiplicity           Mult            ....    1
 Number of Electrons    NEL             ....   82
FINAL SINGLE POINT ENERGY      -394.457362760702
                    ***********************HURRAY********************
FINAL SINGLE POINT ENERGY      -394.457363725263

CARTESIAN COORDINATES (ANGSTROEM)
---------------------------------
  C      0.921295    0.086812   -0.091078
  C      2.452645    0.073816   -0.049605
  C      3.019445   -0.072778    1.367626
  C      4.551520   -0.082850    1.420105
  C      5.118458   -0.230156    2.837207
  C      6.650776   -0.235995    2.889446
  C      7.217771   -0.385152    4.306329
  C      8.749857   -0.388096    4.359459
  C      9.316760   -0.540469    5.776030
  C     10.848130   -0.541159    5.818734
  H      0.546283    0.192469   -1.119995
  H      0.516760    0.922901    0.500639
  H      0.505436   -0.845171    0.322826
  H      2.840929    1.004102   -0.499247
  H      2.831765   -0.750997   -0.677529
  H      2.633005   -1.004821    1.817992
  H      2.638770    0.751950    1.996805
  H      4.936345    0.849868    0.970064
  H      4.931306   -0.906724    0.789484
  H      4.735909   -1.164167    3.286428
  H      4.736520    0.592244    3.468417
  H      7.033158    0.698763    2.441621
  H      7.032928   -1.057379    2.257049
  H      6.837121   -1.321024    4.753349
  H      6.833931    0.435004    4.939340
  H      9.131862    0.548611    3.915016
  H      9.134970   -1.207037    3.725440
  H      8.935860   -1.477189    6.218557
  H      8.930404    0.276569    6.409693
  H     11.260126   -1.368463    5.219847
  H     11.223138   -0.653127    6.846992
  H     11.256637    0.397975    5.413786

 Multiplicity           Mult            ....    1
 Number of Electrons    NEL             ....   82
 Basis Dimension        Dim             ....  568

ORBITAL ENERGIES
----------------

  NO   OCC          E(Eh)            E(eV)
   0   2.0000      -9.885762      -269.0053
   1   2.0000      -9.885761      -269.0052
   2   2.0000      -9.883531      -268.9445
   3   2.0000      -9.883486      -268.9433
   4   2.0000      -9.883436      -268.9420
   5   2.0000      -9.883389      -268.9407
   6   2.0000      -9.883341      -268.9394
   7   2.0000      -9.883325      -268.9390
   8   2.0000      -9.879193      -268.8265
   9   2.0000      -9.879191      -268.8265
  10   2.0000      -0.734456       -19.9856
  11   2.0000      -0.719795       -19.5866
  12   2.0000      -0.695519       -18.9260
  13   2.0000      -0.662600       -18.0303
  14   2.0000      -0.622761       -16.9462
  15   2.0000      -0.578840       -15.7510
  16   2.0000      -0.537142       -14.6164
  17   2.0000      -0.514934       -14.0121
  18   2.0000      -0.510061       -13.8795
  19   2.0000      -0.508198       -13.8288
  20   2.0000      -0.431410       -11.7393
  21   2.0000      -0.417992       -11.3741
  22   2.0000      -0.396629       -10.7928
  23   2.0000      -0.385967       -10.5027
  24   2.0000      -0.380490       -10.3537
  25   2.0000      -0.369452       -10.0533
  26   2.0000      -0.367227        -9.9928
  27   2.0000      -0.346607        -9.4316
  28   2.0000      -0.339778        -9.2458
  29   2.0000      -0.337698        -9.1892
  30   2.0000      -0.315256        -8.5786
  31   2.0000      -0.311923        -8.4879
  32   2.0000      -0.295606        -8.0439
  33   2.0000      -0.294714        -8.0196
  34   2.0000      -0.290476        -7.9042
  35   2.0000      -0.283199        -7.7062
  36   2.0000      -0.279306        -7.6003
  37   2.0000      -0.278240        -7.5713
  38   2.0000      -0.274111        -7.4589
  39   2.0000      -0.273949        -7.4545
  40   2.0000      -0.257617        -7.0101
  41   0.0000       0.005835         0.1588
  42   0.0000       0.010111         0.2751
  43   0.0000       0.017618         0.4794
  44   0.0000       0.018590         0.5059
  45   0.0000       0.031629         0.8607

MULLIKEN ATOMIC CHARGES
-----------------------
   0 C :   -1.410324
   1 C :   -0.227125
   2 C :   -0.543263
   3 C :   -0.605172
   4 C :   -0.629225
   5 C :   -0.629996
   6 C :   -0.604854
   7 C :   -0.543340
   8 C :   -0.227120
   9 C :   -1.410454
  10 H :    0.388577
  11 H :    0.343411
  12 H :    0.342947
  13 H :    0.295136
  14 H :    0.296870
  15 H :    0.290958
  16 H :    0.292326
  17 H :    0.288515
  18 H :    0.292099
  19 H :    0.291084
  20 H :    0.293476
  21 H :    0.290990
  22 H :    0.293584
  23 H :    0.288842
  24 H :    0.291779
  25 H :    0.290931
  26 H :    0.292318
  27 H :    0.295462
  28 H :    0.296581
  29 H :    0.343116
  30 H :    0.388585
  31 H :    0.343287
Sum of atomic charges:    0.0000000

LOEWDIN ATOMIC CHARGES
----------------------
   0 C :   -0.135402
   1 C :   -0.287570
   2 C :   -0.246469
   3 C :   -0.237839
   4 C :   -0.236837
   5 C :   -0.236842
   6 C :   -0.237834
   7 C :   -0.246468
   8 C :   -0.287579
   9 C :   -0.135408
  10 H :    0.069041
  11 H :    0.073109
  12 H :    0.073101
  13 H :    0.109940
  14 H :    0.109945
  15 H :    0.117964
  16 H :    0.117946
  17 H :    0.118242
  18 H :    0.118303
  19 H :    0.118263
  20 H :    0.118268
  21 H :    0.118246
  22 H :    0.118287
  23 H :    0.118256
  24 H :    0.118288
  25 H :    0.117950
  26 H :    0.117962
  27 H :    0.109945
  28 H :    0.109942
  29 H :    0.073112
  30 H :    0.069041
  31 H :    0.073099

  Mayer bond orders larger than 0.100000
B(  0-C ,  1-C ) :   0.4822 B(  0-C ,  2-C ) :   0.2261 B(  0-C , 10-H ) :   0.9063
B(  0-C , 11-H ) :   0.9516 B(  0-C , 12-H ) :   0.9516 B(  1-C ,  2-C ) :   0.4740
B(  1-C ,  3-C ) :   0.3205 B(  1-C , 13-H ) :   0.9381 B(  1-C , 14-H ) :   0.9355
B(  2-C ,  3-C ) :   0.4504 B(  2-C ,  4-C ) :   0.3798 B(  2-C , 15-H ) :   0.9670
B(  2-C , 16-H ) :   0.9660 B(  3-C ,  4-C ) :   0.4232 B(  3-C ,  5-C ) :   0.3906
B(  3-C , 17-H ) :   0.9671 B(  3-C , 18-H ) :   0.9624 B(  4-C ,  5-C ) :   0.3793
B(  4-C ,  6-C ) :   0.3904 B(  4-C , 19-H ) :   0.9804 B(  4-C , 20-H ) :   0.9776
B(  5-C ,  6-C ) :   0.4235 B(  5-C ,  7-C ) :   0.3798 B(  5-C , 21-H ) :   0.9806
B(  5-C , 22-H ) :   0.9773 B(  6-C ,  7-C ) :   0.4504 B(  6-C ,  8-C ) :   0.3204
B(  6-C , 23-H ) :   0.9664 B(  6-C , 24-H ) :   0.9631 B(  7-C ,  8-C ) :   0.4741
B(  7-C ,  9-C ) :   0.2261 B(  7-C , 25-H ) :   0.9672 B(  7-C , 26-H ) :   0.9659
B(  8-C ,  9-C ) :   0.4822 B(  8-C , 27-H ) :   0.9379 B(  8-C , 28-H ) :   0.9357
B(  9-C , 29-H ) :   0.9519 B(  9-C , 30-H ) :   0.9064 B(  9-C , 31-H ) :   0.9512

FINAL SINGLE POINT ENERGY      -394.458754856006

DIPOLE MOMENT
-------------

Method             : SCF
Type of density    : Electron Density
Multiplicity       :   1
Irrep              :   0
Energy             :  -394.4587548560060668 Eh
Relativity type    :
Basis              : AO
                                X                 Y                 Z
Electronic contribution:     -0.000369659      -0.007936988      -0.001003585
Nuclear contribution   :      0.000409785       0.007616163       0.000964889
                        -----------------------------------------
Total Dipole Moment    :      0.000040127      -0.000320825      -0.000038696
                        -----------------------------------------
Magnitude (a.u.)       :      0.000325632
Magnitude (Debye)      :      0.000827690

Rotational constants in cm-1:             0.282396             0.008375             0.008259
Rotational constants in MHz :          8466.011494           251.077225           247.609015

                             ****ORCA TERMINATED NORMALLY****
TOTAL RUN TIME: 0 days 0 hours 1 minutes 58 seconds 571 msec
