                         Program Version 6.0.0  -   RELEASE  -
|  1> %MaxCore 2000
|  2>
|  3> %base "single_point_tzvpd"
|  4>
|  5> %cpcm
|  6> radius[1]  1.3
|  7> radius[2]  1.601
|  8> radius[5]  2.048
|  9> radius[6]  2.0
| 10> radius[7]  1.83
| 11> radius[8]  1.72
| 12> radius[9]  1.72
| 13> radius[10]  1.771
| 14> radius[13]  2.152
| 15> radius[14]  2.2
| 16> radius[15]  2.106
| 17> radius[16]  2.16
| 18> radius[17]  2.05
| 19> radius[18]  2.184
| 20> radius[22]  2.261
| 21> radius[26]  2.195
| 22> radius[27]  2.153
| 23> radius[31]  2.172
| 24> radius[32]  2.7
| 25> radius[33]  2.148
| 26> radius[34]  2.2
| 27> radius[35]  2.16
| 28> radius[36]  2.354
| 29> radius[49]  2.245
| 30> radius[50]  2.55
| 31> radius[51]  2.402
| 32> radius[53]  2.32
| 33> radius[54]  2.524
| 34> radius[80]  1.978
| 35> radius[82]  2.36
| 36> radius[86]  2.573
| 37> cut_area 0.03571064825863687
| 38> end
| 39>
| 40> ! CPCM BP86 def2-TZVPD SP PAL64
| 41>
| 42> %base "single_point_tzvpd"
| 43>
| 44> * xyzfile 0 1 butanol-avg_c000.xyz
| 45>
| 46>                          ****END OF INPUT****

CARTESIAN COORDINATES (ANGSTROEM)
---------------------------------
  C     -2.183810    0.099110   -0.319550
  C     -0.748390    0.442580   -0.706850
  C      0.237910   -0.586620   -0.143500
  C      1.676830   -0.240480   -0.532860
  H      1.941870    0.762990   -0.136590
  H     -2.294070    0.090930    0.785840
  H     -2.464360   -0.897650   -0.721870
  H     -2.875020    0.859580   -0.740120
  H     -0.671710    0.465410   -1.815920
  H     -0.501960    1.452110   -0.311220
  H      0.158620   -0.608730    0.965680
  H     -0.012800   -1.595000   -0.540030
  O      2.566280   -1.177310    0.010700
  H      1.790620   -0.199160   -1.640560
  H      2.517680   -1.984090   -0.565990

 Total Charge           Charge          ....    0
 Multiplicity           Mult            ....    1
 Number of Electrons    NEL             ....   42
 Basis Dimension        Dim             ....  278

ORBITAL ENERGIES
----------------

  NO   OCC          E(Eh)            E(eV)
   0   2.0000     -18.771441      -510.7969
   1   2.0000      -9.934420      -270.3293
   2   2.0000      -9.889430      -269.1051
   3   2.0000      -9.886219      -269.0177
   4   2.0000      -9.882685      -268.9215
   5   2.0000      -0.940350       -25.5882
   6   2.0000      -0.716860       -19.5067
   7   2.0000      -0.643010       -17.4972
   8   2.0000      -0.561357       -15.2753
   9   2.0000      -0.516731       -14.0610
  10   2.0000      -0.459755       -12.5106
  11   2.0000      -0.418924       -11.3995
  12   2.0000      -0.391996       -10.6667
  13   2.0000      -0.383847       -10.4450
  14   2.0000      -0.343232        -9.3398
  15   2.0000      -0.334673        -9.1069
  16   2.0000      -0.312584        -8.5058
  17   2.0000      -0.293073        -7.9749
  18   2.0000      -0.287270        -7.8170
  19   2.0000      -0.277763        -7.5583
  20   2.0000      -0.228365        -6.2141
  21   0.0000      -0.001010        -0.0275
  22   0.0000       0.011762         0.3201
  23   0.0000       0.024573         0.6687
  24   0.0000       0.034515         0.9392
  25   0.0000       0.042786         1.1643

MULLIKEN ATOMIC CHARGES
-----------------------
   0 C :   -1.348157
   1 C :   -0.247174
   2 C :   -0.392870
   3 C :   -0.482266
   4 H :    0.282559
   5 H :    0.341435
   6 H :    0.338443
   7 H :    0.364102
   8 H :    0.287295
   9 H :    0.284534
  10 H :    0.219343
  11 H :    0.311851
  12 O :   -0.589618
  13 H :    0.279100
  14 H :    0.351425
Sum of atomic charges:   -0.0000000

LOEWDIN ATOMIC CHARGES
----------------------
   0 C :   -0.143920
   1 C :   -0.294549
   2 C :   -0.224484
   3 C :   -0.323774
   4 H :    0.126370
   5 H :    0.078293
   6 H :    0.078272
   7 H :    0.072974
   8 H :    0.116511
   9 H :    0.116590
  10 H :    0.123262
  11 H :    0.124887
  12 O :   -0.100933
  13 H :    0.128766
  14 H :    0.121734

  Mayer bond orders larger than 0.100000
B(  0-C ,  1-C ) :   0.6213 B(  0-C ,  2-C ) :   0.2222 B(  0-C ,  5-H ) :   0.9361
B(  0-C ,  6-H ) :   0.9422 B(  0-C ,  7-H ) :   0.9249 B(  1-C ,  2-C ) :   0.6465
B(  1-C ,  3-C ) :   0.2637 B(  1-C ,  8-H ) :   0.9401 B(  1-C ,  9-H ) :   0.9382
B(  2-C ,  3-C ) :   0.7218 B(  2-C , 10-H ) :   1.0056 B(  2-C , 11-H ) :   0.9127
B(  3-C ,  4-H ) :   0.9302 B(  3-C , 12-O ) :   0.8198 B(  3-C , 13-H ) :   0.9543
B( 12-O , 14-H ) :   0.8485

FINAL SINGLE POINT ENERGY      -233.762044777076

DIPOLE MOMENT
-------------

Method             : SCF
Type of density    : Electron Density
Multiplicity       :   1
Irrep              :   0
Energy             :  -233.7620447770755447 Eh
Relativity type    :
Basis              : AO
                                X                 Y                 Z
Electronic contribution:      5.088654539      -1.589139748       0.557755509
Nuclear contribution   :     -5.571692799       1.464896734      -1.254552410
                        -----------------------------------------
Total Dipole Moment    :     -0.483038260      -0.124243014      -0.696796901
                        -----------------------------------------
Magnitude (a.u.)       :      0.856906184
Magnitude (Debye)      :      2.178082425

Rotational constants in cm-1:             0.601276             0.066712             0.063375
Rotational constants in MHz :         18025.793314          1999.988611          1899.943080

                             ****ORCA TERMINATED NORMALLY****
TOTAL RUN TIME: 0 days 0 hours 0 minutes 29 seconds 648 msec
