                         Program Version 6.0.0  -   RELEASE  -
|  1> %MaxCore 2000
|  2>
|  3> %base "geo_opt_tzvp"
|  4>
|  5> %cpcm
|  6> radius[1]  1.3
|  7> radius[2]  1.601
|  8> radius[5]  2.048
|  9> radius[6]  2.0
| 10> radius[7]  1.83
| 11> radius[8]  1.72
| 12> radius[9]  1.72
| 13> radius[10]  1.771
| 14> radius[13]  2.152
| 15> radius[14]  2.2
| 16> radius[15]  2.106
| 17> radius[16]  2.16
| 18> radius[17]  2.05
| 19> radius[18]  2.184
| 20> radius[22]  2.261
| 21> radius[26]  2.195
| 22> radius[27]  2.153
| 23> radius[31]  2.172
| 24> radius[32]  2.7
| 25> radius[33]  2.148
| 26> radius[34]  2.2
| 27> radius[35]  2.16
| 28> radius[36]  2.354
| 29> radius[49]  2.245
| 30> radius[50]  2.55
| 31> radius[51]  2.402
| 32> radius[53]  2.32
| 33> radius[54]  2.524
| 34> radius[80]  1.978
| 35> radius[82]  2.36
| 36> radius[86]  2.573
| 37> cut_area 0.03571064825863687
| 38> end
| 39>
| 40> ! OPT CPCM BP86 def2-TZVP PAL16
| 41>
| 42> * xyzfile 0 1 tbp_c000.xyz
| 43>
| 44> $new_job
| 45>
| 46> ! CPCM BP86 def2-TZVPD SP PAL16
| 47>
| 48> %base "single_point_tzvpd"
| 49>
| 50> * xyzfile 0 1 geo_opt_tzvp.xyz
| 51>
| 52>                          ****END OF INPUT****
 Total Charge           Charge          ....    0
 Multiplicity           Mult            ....    1
 Number of Electrons    NEL             ....  146
FINAL SINGLE POINT ENERGY     -1116.277424587187
FINAL SINGLE POINT ENERGY     -1116.277460850097
FINAL SINGLE POINT ENERGY     -1116.277497679907
FINAL SINGLE POINT ENERGY     -1116.277499307404
FINAL SINGLE POINT ENERGY     -1116.277499696334
                    ***********************HURRAY********************
FINAL SINGLE POINT ENERGY     -1116.277499587883

CARTESIAN COORDINATES (ANGSTROEM)
---------------------------------
  O      0.591790    0.444415    3.065424
  P      0.108816    0.291626    1.667255
  O      1.234586    0.439159    0.536692
  C      2.543374   -0.204185    0.715876
  C      3.410190    0.137077   -0.482200
  C      4.806286   -0.490622   -0.371372
  C      5.697161   -0.157343   -1.571595
  O     -0.996077    1.324002    1.164497
  C     -0.742163    2.773017    1.229050
  C     -2.036401    3.508204    0.936606
  C     -2.569818    3.316820   -0.487714
  C     -3.857206    4.105349   -0.744726
  O     -0.607726   -1.118988    1.479948
  C     -1.131002   -1.567480    0.181800
  C     -1.559664   -3.017108    0.317587
  C     -2.121130   -3.569949   -0.998957
  C     -2.560497   -5.032441   -0.882523
  H      2.986246    0.167886    1.651450
  H      2.390357   -1.291107    0.800951
  H      2.914802   -0.217137   -1.401094
  H      3.499551    1.233106   -0.561470
  H      4.707286   -1.585007   -0.277024
  H      5.289630   -0.141589    0.556454
  H      6.690187   -0.618941   -1.470653
  H      5.839537    0.929878   -1.669029
  H      5.250270   -0.521606   -2.509415
  H      0.033870    3.013993    0.486821
  H     -0.367562    3.012221    2.234594
  H     -2.797611    3.203560    1.674439
  H     -1.838392    4.578951    1.116580
  H     -1.792796    3.628737   -1.206279
  H     -2.751252    2.245910   -0.671336
  H     -4.657465    3.792099   -0.056410
  H     -4.220221    3.954061   -1.771755
  H     -3.696683    5.185028   -0.599950
  H     -1.979719   -0.921758   -0.087307
  H     -0.339063   -1.452443   -0.572978
  H     -0.694089   -3.620701    0.636652
  H     -2.321912   -3.095564    1.110250
  H     -2.976597   -2.951956   -1.319504
  H     -1.357122   -3.475586   -1.788772
  H     -2.957028   -5.405659   -1.837968
  H     -1.716715   -5.677519   -0.593194
  H     -3.348027   -5.150408   -0.122405

 Multiplicity           Mult            ....    1
 Number of Electrons    NEL             ....  146
 Basis Dimension        Dim             ....  890

ORBITAL ENERGIES
----------------

  NO   OCC          E(Eh)            E(eV)
   0   2.0000     -76.469729     -2080.8471
   1   2.0000     -18.805653      -511.7278
   2   2.0000     -18.805224      -511.7162
   3   2.0000     -18.804185      -511.6879
   4   2.0000     -18.741866      -509.9921
   5   2.0000      -9.956317      -270.9252
   6   2.0000      -9.955008      -270.8895
   7   2.0000      -9.954743      -270.8823
   8   2.0000      -9.895944      -269.2823
   9   2.0000      -9.895090      -269.2591
  10   2.0000      -9.895011      -269.2569
  11   2.0000      -9.893635      -269.2195
  12   2.0000      -9.893576      -269.2179
  13   2.0000      -9.890625      -269.1376
  14   2.0000      -9.882157      -268.9072
  15   2.0000      -9.882142      -268.9067
  16   2.0000      -9.881409      -268.8868
  17   2.0000      -6.412284      -174.4871
  18   2.0000      -4.629796      -125.9832
  19   2.0000      -4.629280      -125.9691
  20   2.0000      -4.626958      -125.9059
  21   2.0000      -1.011124       -27.5141
  22   2.0000      -0.951424       -25.8896
  23   2.0000      -0.950147       -25.8548
  24   2.0000      -0.887719       -24.1561
  25   2.0000      -0.732223       -19.9248
  26   2.0000      -0.727063       -19.7844
  27   2.0000      -0.725351       -19.7378
  28   2.0000      -0.672820       -18.3084
  29   2.0000      -0.660554       -17.9746
  30   2.0000      -0.659082       -17.9345
  31   2.0000      -0.592192       -16.1144
  32   2.0000      -0.577758       -15.7216
  33   2.0000      -0.574411       -15.6305
  34   2.0000      -0.532378       -14.4868
  35   2.0000      -0.525721       -14.3056
  36   2.0000      -0.524969       -14.2851
  37   2.0000      -0.512941       -13.9578
  38   2.0000      -0.478449       -13.0193
  39   2.0000      -0.474759       -12.9188
  40   2.0000      -0.444356       -12.0915
  41   2.0000      -0.437586       -11.9073
  42   2.0000      -0.431909       -11.7528
  43   2.0000      -0.413745       -11.2586
  44   2.0000      -0.407351       -11.0846
  45   2.0000      -0.400668       -10.9027
  46   2.0000      -0.395057       -10.7500
  47   2.0000      -0.393599       -10.7104
  48   2.0000      -0.387636       -10.5481
  49   2.0000      -0.379548       -10.3280
  50   2.0000      -0.364649        -9.9226
  51   2.0000      -0.359879        -9.7928
  52   2.0000      -0.352977        -9.6050
  53   2.0000      -0.342111        -9.3093
  54   2.0000      -0.337091        -9.1727
  55   2.0000      -0.333212        -9.0672
  56   2.0000      -0.330311        -8.9882
  57   2.0000      -0.327349        -8.9076
  58   2.0000      -0.323637        -8.8066
  59   2.0000      -0.308919        -8.4061
  60   2.0000      -0.301849        -8.2137
  61   2.0000      -0.299182        -8.1411
  62   2.0000      -0.298573        -8.1246
  63   2.0000      -0.295673        -8.0457
  64   2.0000      -0.291062        -7.9202
  65   2.0000      -0.288484        -7.8500
  66   2.0000      -0.286756        -7.8030
  67   2.0000      -0.286260        -7.7895
  68   2.0000      -0.283386        -7.7113
  69   2.0000      -0.279315        -7.6005
  70   2.0000      -0.271226        -7.3804
  71   2.0000      -0.266760        -7.2589
  72   2.0000      -0.258952        -7.0464
  73   0.0000      -0.009709        -0.2642
  74   0.0000       0.004488         0.1221
  75   0.0000       0.008140         0.2215
  76   0.0000       0.011101         0.3021
  77   0.0000       0.016433         0.4472

MULLIKEN ATOMIC CHARGES
-----------------------
   0 O :   -0.849622
   1 P :    0.792868
   2 O :   -0.186070
   3 C :   -0.582754
   4 C :   -0.422482
   5 C :   -0.289709
   6 C :   -1.409430
   7 O :   -0.038529
   8 C :   -0.533529
   9 C :   -0.610218
  10 C :   -0.091932
  11 C :   -1.457762
  12 O :   -0.370479
  13 C :   -0.307686
  14 C :   -0.461508
  15 C :   -0.294197
  16 C :   -1.413147
  17 H :    0.312194
  18 H :    0.322774
  19 H :    0.258988
  20 H :    0.261645
  21 H :    0.317112
  22 H :    0.312302
  23 H :    0.389301
  24 H :    0.348365
  25 H :    0.348273
  26 H :    0.330892
  27 H :    0.333994
  28 H :    0.293188
  29 H :    0.346900
  30 H :    0.299217
  31 H :    0.150999
  32 H :    0.340286
  33 H :    0.389680
  34 H :    0.355929
  35 H :    0.252772
  36 H :    0.282969
  37 H :    0.281732
  38 H :    0.253047
  39 H :    0.328245
  40 H :    0.330602
  41 H :    0.391915
  42 H :    0.345666
  43 H :    0.347200
Sum of atomic charges:   -0.0000000

LOEWDIN ATOMIC CHARGES
----------------------
   0 O :   -0.281052
   1 P :    0.350580
   2 O :   -0.181466
   3 C :   -0.206767
   4 C :   -0.205098
   5 C :   -0.272036
   6 C :   -0.128270
   7 O :   -0.177092
   8 C :   -0.196458
   9 C :   -0.202626
  10 C :   -0.271238
  11 C :   -0.128046
  12 O :   -0.175980
  13 C :   -0.202887
  14 C :   -0.203982
  15 C :   -0.271750
  16 C :   -0.128217
  17 H :    0.125970
  18 H :    0.135269
  19 H :    0.125092
  20 H :    0.125897
  21 H :    0.115067
  22 H :    0.114986
  23 H :    0.071530
  24 H :    0.075643
  25 H :    0.075675
  26 H :    0.129850
  27 H :    0.123079
  28 H :    0.125863
  29 H :    0.129490
  30 H :    0.116327
  31 H :    0.106220
  32 H :    0.075886
  33 H :    0.071424
  34 H :    0.075310
  35 H :    0.129045
  36 H :    0.130040
  37 H :    0.125813
  38 H :    0.125684
  39 H :    0.115138
  40 H :    0.115205
  41 H :    0.071559
  42 H :    0.075655
  43 H :    0.075667

  Mayer bond orders larger than 0.100000
B(  0-O ,  1-P ) :   1.2950 B(  0-O ,  2-O ) :   0.1040 B(  1-P ,  2-O ) :   1.1213
B(  1-P ,  7-O ) :   1.0362 B(  1-P , 12-O ) :   1.0732 B(  2-O ,  3-C ) :   0.5510
B(  2-O ,  4-C ) :   0.1451 B(  3-C ,  4-C ) :   0.6847 B(  3-C ,  5-C ) :   0.3984
B(  3-C , 17-H ) :   0.9070 B(  3-C , 18-H ) :   0.9016 B(  4-C ,  5-C ) :   0.4990
B(  4-C ,  6-C ) :   0.2245 B(  4-C , 19-H ) :   0.9766 B(  4-C , 20-H ) :   0.9601
B(  5-C ,  6-C ) :   0.5083 B(  5-C , 21-H ) :   0.9091 B(  5-C , 22-H ) :   0.9256
B(  6-C , 23-H ) :   0.9059 B(  6-C , 24-H ) :   0.9380 B(  6-C , 25-H ) :   0.9403
B(  7-O ,  8-C ) :   0.6051 B(  8-C ,  9-C ) :   1.0666 B(  8-C , 10-C ) :   0.1585
B(  8-C , 26-H ) :   0.8507 B(  8-C , 27-H ) :   0.8541 B(  9-C , 10-C ) :   0.6113
B(  9-C , 11-C ) :   0.2401 B(  9-C , 28-H ) :   0.9205 B(  9-C , 29-H ) :   0.8974
B( 10-C , 11-C ) :   0.4462 B( 10-C , 30-H ) :   0.9370 B( 10-C , 31-H ) :   1.0612
B( 11-C , 32-H ) :   0.9638 B( 11-C , 33-H ) :   0.9033 B( 11-C , 34-H ) :   0.9310
B( 12-O , 13-C ) :   0.4764 B( 12-O , 14-C ) :   0.1606 B( 13-C , 14-C ) :   0.7200
B( 13-C , 15-C ) :   0.2636 B( 13-C , 35-H ) :   0.9323 B( 13-C , 36-H ) :   0.9406
B( 14-C , 15-C ) :   0.6010 B( 14-C , 16-C ) :   0.2170 B( 14-C , 37-H ) :   0.9385
B( 14-C , 38-H ) :   0.9518 B( 15-C , 16-C ) :   0.5184 B( 15-C , 39-H ) :   0.9000
B( 15-C , 40-H ) :   0.9016 B( 16-C , 41-H ) :   0.9046 B( 16-C , 42-H ) :   0.9429
B( 16-C , 43-H ) :   0.9402

FINAL SINGLE POINT ENERGY     -1116.281636760918

DIPOLE MOMENT
-------------

Method             : SCF
Type of density    : Electron Density
Multiplicity       :   1
Irrep              :   0
Energy             : -1116.2816367609175359 Eh
Relativity type    :
Basis              : AO
                                X                 Y                 Z
Electronic contribution:      0.881377712       3.476431912      17.531099979
Nuclear contribution   :     -0.775945674      -3.456777397     -19.929245612
                        -----------------------------------------
Total Dipole Moment    :      0.105432037       0.019654515      -2.398145633
                        -----------------------------------------
Magnitude (a.u.)       :      2.400542582
Magnitude (Debye)      :      6.101694335

Rotational constants in cm-1:             0.009303             0.007716             0.005165
Rotational constants in MHz :           278.906647           231.324435           154.834266

                             ****ORCA TERMINATED NORMALLY****
TOTAL RUN TIME: 0 days 0 hours 3 minutes 19 seconds 587 msec
