                         Program Version 6.0.0  -   RELEASE  -
|  1> %MaxCore 2000
|  2>
|  3> %base "geo_opt_tzvp"
|  4>
|  5> %cpcm
|  6> radius[1]  1.3
|  7> radius[2]  1.601
|  8> radius[5]  2.048
|  9> radius[6]  2.0
| 10> radius[7]  1.83
| 11> radius[8]  1.72
| 12> radius[9]  1.72
| 13> radius[10]  1.771
| 14> radius[13]  2.152
| 15> radius[14]  2.2
| 16> radius[15]  2.106
| 17> radius[16]  2.16
| 18> radius[17]  2.05
| 19> radius[18]  2.184
| 20> radius[22]  2.261
| 21> radius[26]  2.195
| 22> radius[27]  2.153
| 23> radius[31]  2.172
| 24> radius[32]  2.7
| 25> radius[33]  2.148
| 26> radius[34]  2.2
| 27> radius[35]  2.16
| 28> radius[36]  2.354
| 29> radius[49]  2.245
| 30> radius[50]  2.55
| 31> radius[51]  2.402
| 32> radius[53]  2.32
| 33> radius[54]  2.524
| 34> radius[80]  1.978
| 35> radius[82]  2.36
| 36> radius[86]  2.573
| 37> cut_area 0.03571064825863687
| 38> end
| 39>
| 40> ! OPT CPCM BP86 def2-TZVP
| 41>
| 42> * xyzfile 0 1 water_c000.xyz
| 43>
| 44> $new_job
| 45>
| 46> ! CPCM BP86 def2-TZVPD SP
| 47>
| 48> %base "single_point_tzvpd"
| 49>
| 50> * xyzfile 0 1 geo_opt_tzvp.xyz
| 51>
| 52>                          ****END OF INPUT****
 Total Charge           Charge          ....    0
 Multiplicity           Mult            ....    1
 Number of Electrons    NEL             ....   10
FINAL SINGLE POINT ENERGY       -76.476431422977
FINAL SINGLE POINT ENERGY       -76.476432368825
FINAL SINGLE POINT ENERGY       -76.476432650303
                    ***********************HURRAY********************
FINAL SINGLE POINT ENERGY       -76.476432672917

CARTESIAN COORDINATES (ANGSTROEM)
---------------------------------
  O     -0.000795    0.401428    0.000000
  H     -0.764800   -0.202217    0.000000
  H      0.765595   -0.199210    0.000000

 Multiplicity           Mult            ....    1
 Number of Electrons    NEL             ....   10
 Basis Dimension        Dim             ....   58

ORBITAL ENERGIES
----------------

  NO   OCC          E(Eh)            E(eV)
   0   2.0000     -18.773709      -510.8586
   1   2.0000      -0.925424       -25.1821
   2   2.0000      -0.475161       -12.9298
   3   2.0000      -0.348578        -9.4853
   4   2.0000      -0.271043        -7.3755
   5   0.0000      -0.003700        -0.1007
   6   0.0000       0.056461         1.5364
   7   0.0000       0.069417         1.8889
   8   0.0000       0.070440         1.9168
   9   0.0000       0.133411         3.6303

MULLIKEN ATOMIC CHARGES
-----------------------
   0 O :   -0.736438
   1 H :    0.368224
   2 H :    0.368215
Sum of atomic charges:   -0.0000000

LOEWDIN ATOMIC CHARGES
----------------------
   0 O :   -0.100414
   1 H :    0.050204
   2 H :    0.050209

  Mayer bond orders larger than 0.100000
B(  0-O ,  1-H ) :   0.8768 B(  0-O ,  2-H ) :   0.8768

FINAL SINGLE POINT ENERGY       -76.479237520241

DIPOLE MOMENT
-------------

Method             : SCF
Type of density    : Electron Density
Multiplicity       :   1
Irrep              :   0
Energy             :   -76.4792375202412416 Eh
Relativity type    :
Basis              : AO
                                X                 Y                 Z
Electronic contribution:     -0.000239397       0.096456277      -0.000000000
Nuclear contribution   :      0.001984847      -1.002398193       0.000000000
                        -----------------------------------------
Total Dipole Moment    :      0.001745450      -0.905941915      -0.000000000
                        -----------------------------------------
Magnitude (a.u.)       :      0.905943597
Magnitude (Debye)      :      2.302725623

Rotational constants in cm-1:            25.968604            14.280970             9.213932
Rotational constants in MHz :        778519.169698        428132.711058        276226.746130

                             ****ORCA TERMINATED NORMALLY****
TOTAL RUN TIME: 0 days 0 hours 0 minutes 2 seconds 695 msec
