                         Program Version 6.0.0  -   RELEASE  -
|  1> %MaxCore 2000
|  2>
|  3> %base "geo_opt_tzvp"
|  4>
|  5> %cpcm
|  6> radius[1]  1.3
|  7> radius[2]  1.601
|  8> radius[5]  2.048
|  9> radius[6]  2.0
| 10> radius[7]  1.83
| 11> radius[8]  1.72
| 12> radius[9]  1.72
| 13> radius[10]  1.771
| 14> radius[13]  2.152
| 15> radius[14]  2.2
| 16> radius[15]  2.106
| 17> radius[16]  2.16
| 18> radius[17]  2.05
| 19> radius[18]  2.184
| 20> radius[22]  2.261
| 21> radius[26]  2.195
| 22> radius[27]  2.153
| 23> radius[31]  2.172
| 24> radius[32]  2.7
| 25> radius[33]  2.148
| 26> radius[34]  2.2
| 27> radius[35]  2.16
| 28> radius[36]  2.354
| 29> radius[49]  2.245
| 30> radius[50]  2.55
| 31> radius[51]  2.402
| 32> radius[53]  2.32
| 33> radius[54]  2.524
| 34> radius[80]  1.978
| 35> radius[82]  2.36
| 36> radius[86]  2.573
| 37> cut_area 0.03571064825863687
| 38> end
| 39>
| 40> ! OPT CPCM BP86 def2-TZVP PAL16
| 41>
| 42> * xyzfile 0 1 toluene_c000.xyz
| 43>
| 44> $new_job
| 45>
| 46> ! CPCM BP86 def2-TZVPD SP PAL16
| 47>
| 48> %base "single_point_tzvpd"
| 49>
| 50> * xyzfile 0 1 geo_opt_tzvp.xyz
| 51>
| 52>                          ****END OF INPUT****
 Total Charge           Charge          ....    0
 Multiplicity           Mult            ....    1
 Number of Electrons    NEL             ....   50
FINAL SINGLE POINT ENERGY      -271.661175453783
                    ***********************HURRAY********************
FINAL SINGLE POINT ENERGY      -271.661175588526

CARTESIAN COORDINATES (ANGSTROEM)
---------------------------------
  C      2.232922   -0.084094   -0.053461
  C      0.724960   -0.028163   -0.033365
  C     -0.041045   -1.203625    0.044670
  C     -1.438190   -1.153295    0.093365
  C     -2.099204    0.079660    0.062305
  C     -1.349811    1.258482   -0.020461
  C      0.047107    1.202181   -0.068903
  H      2.657399    0.768231   -0.601972
  H      2.592595   -1.013644   -0.516091
  H      2.639760   -0.049391    0.970434
  H      0.466025   -2.171668    0.064887
  H     -2.012103   -2.080450    0.151795
  H     -3.189363    0.121279    0.097370
  H     -1.854567    2.226281   -0.051916
  H      0.623515    2.128214   -0.138657

 Multiplicity           Mult            ....    1
 Number of Electrons    NEL             ....   50
 Basis Dimension        Dim             ....  331

ORBITAL ENERGIES
----------------

  NO   OCC          E(Eh)            E(eV)
   0   2.0000      -9.911582      -269.7079
   1   2.0000      -9.901208      -269.4256
   2   2.0000      -9.901178      -269.4247
   3   2.0000      -9.899337      -269.3747
   4   2.0000      -9.898584      -269.3542
   5   2.0000      -9.898577      -269.3540
   6   2.0000      -9.889471      -269.1062
   7   2.0000      -0.781312       -21.2606
   8   2.0000      -0.700530       -19.0624
   9   2.0000      -0.675274       -18.3751
  10   2.0000      -0.617839       -16.8122
  11   2.0000      -0.545602       -14.8466
  12   2.0000      -0.525697       -14.3049
  13   2.0000      -0.459179       -12.4949
  14   2.0000      -0.412235       -11.2175
  15   2.0000      -0.403061       -10.9679
  16   2.0000      -0.374629       -10.1942
  17   2.0000      -0.371916       -10.1204
  18   2.0000      -0.362755        -9.8711
  19   2.0000      -0.337937        -9.1957
  20   2.0000      -0.322333        -8.7711
  21   2.0000      -0.300649        -8.1811
  22   2.0000      -0.296170        -8.0592
  23   2.0000      -0.233933        -6.3656
  24   2.0000      -0.224136        -6.0991
  25   0.0000      -0.047271        -1.2863
  26   0.0000      -0.044433        -1.2091
  27   0.0000       0.003478         0.0946
  28   0.0000       0.020945         0.5699
  29   0.0000       0.029853         0.8123

MULLIKEN ATOMIC CHARGES
-----------------------
   0 C :   -1.451479
   1 C :    0.914650
   2 C :   -0.498068
   3 C :   -0.546915
   4 C :   -0.552466
   5 C :   -0.546089
   6 C :   -0.497668
   7 H :    0.383737
   8 H :    0.383237
   9 H :    0.318994
  10 H :    0.403159
  11 H :    0.424152
  12 H :    0.436919
  13 H :    0.423917
  14 H :    0.403920
Sum of atomic charges:   -0.0000000

LOEWDIN ATOMIC CHARGES
----------------------
   0 C :   -0.065370
   1 C :   -0.286920
   2 C :   -0.065694
   3 C :   -0.103394
   4 C :   -0.112922
   5 C :   -0.103391
   6 C :   -0.065728
   7 H :    0.081309
   8 H :    0.081287
   9 H :    0.089611
  10 H :    0.115847
  11 H :    0.107112
  12 H :    0.105276
  13 H :    0.107100
  14 H :    0.115877

  Mayer bond orders larger than 0.100000
B(  0-C ,  1-C ) :   0.3759 B(  0-C ,  7-H ) :   0.9202 B(  0-C ,  8-H ) :   0.9218
B(  0-C ,  9-H ) :   0.8958 B(  1-C ,  2-C ) :   1.0415 B(  1-C ,  6-C ) :   1.0422
B(  2-C ,  3-C ) :   1.4180 B(  2-C ,  6-C ) :  -0.1321 B(  2-C , 10-H ) :   0.7666
B(  3-C ,  4-C ) :   1.4651 B(  3-C , 11-H ) :   0.7113 B(  4-C ,  5-C ) :   1.4668
B(  4-C , 12-H ) :   0.6913 B(  5-C ,  6-C ) :   1.4184 B(  5-C , 13-H ) :   0.7113
B(  6-C , 14-H ) :   0.7657

FINAL SINGLE POINT ENERGY      -271.661990363245

DIPOLE MOMENT
-------------

Method             : SCF
Type of density    : Electron Density
Multiplicity       :   1
Irrep              :   0
Energy             :  -271.6619903632446835 Eh
Relativity type    :
Basis              : AO
                                X                 Y                 Z
Electronic contribution:     -3.273555245       0.121905025       0.059169737
Nuclear contribution   :      3.528093739      -0.130515331      -0.044300292
                        -----------------------------------------
Total Dipole Moment    :      0.254538493      -0.008610306       0.014869445
                        -----------------------------------------
Magnitude (a.u.)       :      0.255117781
Magnitude (Debye)      :      0.648457866

Rotational constants in cm-1:             0.183508             0.083344             0.057938
Rotational constants in MHz :          5501.443451          2498.591311          1736.926737

                             ****ORCA TERMINATED NORMALLY****
TOTAL RUN TIME: 0 days 0 hours 0 minutes 30 seconds 457 msec
