                         Program Version 6.0.0  -   RELEASE  -
|  1> %MaxCore 2000
|  2>
|  3> %base "geo_opt_tzvp"
|  4>
|  5> %cpcm
|  6> radius[1]  1.3
|  7> radius[2]  1.601
|  8> radius[5]  2.048
|  9> radius[6]  2.0
| 10> radius[7]  1.83
| 11> radius[8]  1.72
| 12> radius[9]  1.72
| 13> radius[10]  1.771
| 14> radius[13]  2.152
| 15> radius[14]  2.2
| 16> radius[15]  2.106
| 17> radius[16]  2.16
| 18> radius[17]  2.05
| 19> radius[18]  2.184
| 20> radius[22]  2.261
| 21> radius[26]  2.195
| 22> radius[27]  2.153
| 23> radius[31]  2.172
| 24> radius[32]  2.7
| 25> radius[33]  2.148
| 26> radius[34]  2.2
| 27> radius[35]  2.16
| 28> radius[36]  2.354
| 29> radius[49]  2.245
| 30> radius[50]  2.55
| 31> radius[51]  2.402
| 32> radius[53]  2.32
| 33> radius[54]  2.524
| 34> radius[80]  1.978
| 35> radius[82]  2.36
| 36> radius[86]  2.573
| 37> cut_area 0.03571064825863687
| 38> end
| 39>
| 40> ! OPT CPCM BP86 def2-TZVP PAL16
| 41>
| 42> * xyzfile 0 1 decanol_c000.xyz
| 43>
| 44> $new_job
| 45>
| 46> ! CPCM BP86 def2-TZVPD SP PAL16
| 47>
| 48> %base "single_point_tzvpd"
| 49>
| 50> * xyzfile 0 1 geo_opt_tzvp.xyz
| 51>
| 52>                          ****END OF INPUT****
 Total Charge           Charge          ....    0
 Multiplicity           Mult            ....    1
 Number of Electrons    NEL             ....   90
FINAL SINGLE POINT ENERGY      -469.715402386779
FINAL SINGLE POINT ENERGY      -469.715406480496
FINAL SINGLE POINT ENERGY      -469.715408145949
                    ***********************HURRAY********************
FINAL SINGLE POINT ENERGY      -469.715408346599

CARTESIAN COORDINATES (ANGSTROEM)
---------------------------------
  C     -5.937287    0.744167   -0.577667
  C     -4.721155   -0.172965   -0.414758
  C     -3.388812    0.585622   -0.398395
  C     -2.164107   -0.322243   -0.237280
  C     -0.832667    0.437715   -0.219251
  C      0.392001   -0.470512   -0.057920
  C      1.722934    0.290031   -0.040562
  C      2.945905   -0.620261    0.123310
  C      4.275831    0.143854    0.138668
  C      5.481359   -0.777787    0.302350
  O      6.736111   -0.066327    0.347353
  H     -5.995366    1.473736    0.245228
  H     -5.882397    1.310383   -1.520652
  H     -6.876968    0.172004   -0.584878
  H     -4.705497   -0.913514   -1.233125
  H     -4.818827   -0.751804    0.520057
  H     -3.290971    1.166261   -1.333434
  H     -3.403573    1.325964    0.421709
  H     -2.263607   -0.903402    0.697111
  H     -2.149723   -1.061538   -1.058147
  H     -0.847094    1.176927    0.601636
  H     -0.733064    1.018860   -1.153591
  H      0.292879   -1.051088    0.876796
  H      0.406552   -1.210019   -0.878501
  H      1.824273    0.868746   -0.975954
  H      1.709043    1.030179    0.779165
  H      2.959248   -1.361115   -0.695487
  H      2.845966   -1.196965    1.059880
  H      4.386418    0.711495   -0.802503
  H      4.275593    0.881079    0.959509
  H      5.497964   -1.527538   -0.510053
  H      5.420575   -1.322071    1.257057
  H      6.838461    0.392125   -0.506771

 Multiplicity           Mult            ....    1
 Number of Electrons    NEL             ....   90
 Basis Dimension        Dim             ....  608

ORBITAL ENERGIES
----------------

  NO   OCC          E(Eh)            E(eV)
   0   2.0000     -18.771707      -510.8041
   1   2.0000      -9.935728      -270.3649
   2   2.0000      -9.888098      -269.0688
   3   2.0000      -9.887715      -269.0584
   4   2.0000      -9.885806      -269.0065
   5   2.0000      -9.885242      -268.9911
   6   2.0000      -9.884012      -268.9577
   7   2.0000      -9.883762      -268.9508
   8   2.0000      -9.883586      -268.9461
   9   2.0000      -9.883434      -268.9419
  10   2.0000      -9.879208      -268.8269
  11   2.0000      -0.931564       -25.3491
  12   2.0000      -0.735489       -20.0137
  13   2.0000      -0.720738       -19.6123
  14   2.0000      -0.695312       -18.9204
  15   2.0000      -0.661131       -17.9903
  16   2.0000      -0.620773       -16.8921
  17   2.0000      -0.579054       -15.7568
  18   2.0000      -0.543098       -14.7784
  19   2.0000      -0.519476       -14.1356
  20   2.0000      -0.512271       -13.9396
  21   2.0000      -0.509363       -13.8605
  22   2.0000      -0.453166       -12.3313
  23   2.0000      -0.431439       -11.7401
  24   2.0000      -0.419007       -11.4017
  25   2.0000      -0.401589       -10.9278
  26   2.0000      -0.389398       -10.5961
  27   2.0000      -0.380246       -10.3470
  28   2.0000      -0.376284       -10.2392
  29   2.0000      -0.366717        -9.9789
  30   2.0000      -0.352478        -9.5914
  31   2.0000      -0.348012        -9.4699
  32   2.0000      -0.329019        -8.9531
  33   2.0000      -0.323752        -8.8097
  34   2.0000      -0.313826        -8.5396
  35   2.0000      -0.301433        -8.2024
  36   2.0000      -0.299479        -8.1492
  37   2.0000      -0.286848        -7.8055
  38   2.0000      -0.286312        -7.7910
  39   2.0000      -0.280675        -7.6376
  40   2.0000      -0.279998        -7.6191
  41   2.0000      -0.275550        -7.4981
  42   2.0000      -0.274291        -7.4638
  43   2.0000      -0.263175        -7.1614
  44   2.0000      -0.232939        -6.3386
  45   0.0000       0.000306         0.0083
  46   0.0000       0.006758         0.1839
  47   0.0000       0.013257         0.3608
  48   0.0000       0.017470         0.4754
  49   0.0000       0.024596         0.6693

MULLIKEN ATOMIC CHARGES
-----------------------
   0 C :   -1.410900
   1 C :   -0.224928
   2 C :   -0.541287
   3 C :   -0.601152
   4 C :   -0.630365
   5 C :   -0.619986
   6 C :   -0.633714
   7 C :   -0.579547
   8 C :   -0.408698
   9 C :   -0.463782
  10 O :   -0.596151
  11 H :    0.343256
  12 H :    0.343356
  13 H :    0.388825
  14 H :    0.295890
  15 H :    0.295467
  16 H :    0.290418
  17 H :    0.290813
  18 H :    0.290314
  19 H :    0.291507
  20 H :    0.292706
  21 H :    0.291678
  22 H :    0.291001
  23 H :    0.290695
  24 H :    0.296585
  25 H :    0.299098
  26 H :    0.308847
  27 H :    0.307433
  28 H :    0.361951
  29 H :    0.229079
  30 H :    0.269010
  31 H :    0.294294
  32 H :    0.348291
Sum of atomic charges:   -0.0000000

LOEWDIN ATOMIC CHARGES
----------------------
   0 C :   -0.135410
   1 C :   -0.287604
   2 C :   -0.246531
   3 C :   -0.237694
   4 C :   -0.236419
   5 C :   -0.235616
   6 C :   -0.234388
   7 C :   -0.230320
   8 C :   -0.213274
   9 C :   -0.285745
  10 O :   -0.103750
  11 H :    0.073140
  12 H :    0.073147
  13 H :    0.069071
  14 H :    0.109982
  15 H :    0.110005
  16 H :    0.118036
  17 H :    0.118006
  18 H :    0.118401
  19 H :    0.118377
  20 H :    0.118476
  21 H :    0.118520
  22 H :    0.118829
  23 H :    0.118802
  24 H :    0.119336
  25 H :    0.119283
  26 H :    0.120547
  27 H :    0.121016
  28 H :    0.122870
  29 H :    0.120301
  30 H :    0.122047
  31 H :    0.122130
  32 H :    0.096428

  Mayer bond orders larger than 0.100000
B(  0-C ,  1-C ) :   0.4802 B(  0-C ,  2-C ) :   0.2275 B(  0-C , 11-H ) :   0.9517
B(  0-C , 12-H ) :   0.9514 B(  0-C , 13-H ) :   0.9058 B(  1-C ,  2-C ) :   0.4687
B(  1-C ,  3-C ) :   0.3216 B(  1-C , 14-H ) :   0.9367 B(  1-C , 15-H ) :   0.9377
B(  2-C ,  3-C ) :   0.4433 B(  2-C ,  4-C ) :   0.3835 B(  2-C , 16-H ) :   0.9683
B(  2-C , 17-H ) :   0.9678 B(  3-C ,  4-C ) :   0.4140 B(  3-C ,  5-C ) :   0.3932
B(  3-C , 18-H ) :   0.9652 B(  3-C , 19-H ) :   0.9642 B(  4-C ,  5-C ) :   0.3556
B(  4-C ,  6-C ) :   0.4034 B(  4-C , 20-H ) :   0.9795 B(  4-C , 21-H ) :   0.9822
B(  5-C ,  6-C ) :   0.3844 B(  5-C ,  7-C ) :   0.3900 B(  5-C , 22-H ) :   0.9836
B(  5-C , 23-H ) :   0.9854 B(  6-C ,  7-C ) :   0.4834 B(  6-C ,  8-C ) :   0.3380
B(  6-C , 24-H ) :   0.9650 B(  6-C , 25-H ) :   0.9623 B(  7-C ,  8-C ) :   0.5153
B(  7-C ,  9-C ) :   0.2874 B(  7-C , 26-H ) :   0.9587 B(  7-C , 27-H ) :   0.9409
B(  8-C ,  9-C ) :   0.6056 B(  8-C , 28-H ) :   0.8776 B(  8-C , 29-H ) :   0.9966
B(  9-C , 10-O ) :   0.7529 B(  9-C , 30-H ) :   0.9751 B(  9-C , 31-H ) :   0.9212
B( 10-O , 32-H ) :   0.8522

FINAL SINGLE POINT ENERGY      -469.718428621583

DIPOLE MOMENT
-------------

Method             : SCF
Type of density    : Electron Density
Multiplicity       :   1
Irrep              :   0
Energy             :  -469.7184286215829161 Eh
Relativity type    :
Basis              : AO
                                X                 Y                 Z
Electronic contribution:     13.460722906      -0.602975177       0.997069632
Nuclear contribution   :    -14.112657163       0.576475728      -1.648206039
                        -----------------------------------------
Total Dipole Moment    :     -0.651934257      -0.026499449      -0.651136406
                        -----------------------------------------
Magnitude (a.u.)       :      0.921791254
Magnitude (Debye)      :      2.343007165

Rotational constants in cm-1:             0.263491             0.006220             0.006149
Rotational constants in MHz :          7899.259118           186.462908           184.342242

                             ****ORCA TERMINATED NORMALLY****
TOTAL RUN TIME: 0 days 0 hours 1 minutes 29 seconds 115 msec
