                         Program Version 6.0.0  -   RELEASE  -
|  1> %MaxCore 2000
|  2>
|  3> %base "geo_opt_tzvp"
|  4>
|  5> %cpcm
|  6> radius[1]  1.3
|  7> radius[2]  1.601
|  8> radius[5]  2.048
|  9> radius[6]  2.0
| 10> radius[7]  1.83
| 11> radius[8]  1.72
| 12> radius[9]  1.72
| 13> radius[10]  1.771
| 14> radius[13]  2.152
| 15> radius[14]  2.2
| 16> radius[15]  2.106
| 17> radius[16]  2.16
| 18> radius[17]  2.05
| 19> radius[18]  2.184
| 20> radius[22]  2.261
| 21> radius[26]  2.195
| 22> radius[27]  2.153
| 23> radius[31]  2.172
| 24> radius[32]  2.7
| 25> radius[33]  2.148
| 26> radius[34]  2.2
| 27> radius[35]  2.16
| 28> radius[36]  2.354
| 29> radius[49]  2.245
| 30> radius[50]  2.55
| 31> radius[51]  2.402
| 32> radius[53]  2.32
| 33> radius[54]  2.524
| 34> radius[80]  1.978
| 35> radius[82]  2.36
| 36> radius[86]  2.573
| 37> cut_area 0.03571064825863687
| 38> end
| 39>
| 40> ! OPT CPCM BP86 def2-TZVP
| 41>
| 42> * xyzfile 0 1 thf_c000.xyz
| 43>
| 44> $new_job
| 45>
| 46> ! CPCM BP86 def2-TZVPD SP
| 47>
| 48> %base "single_point_tzvpd"
| 49>
| 50> * xyzfile 0 1 geo_opt_tzvp.xyz
| 51>
| 52>                          ****END OF INPUT****
 Total Charge           Charge          ....    0
 Multiplicity           Mult            ....    1
 Number of Electrons    NEL             ....   40
FINAL SINGLE POINT ENERGY      -232.543605738387
FINAL SINGLE POINT ENERGY      -232.543611112570
FINAL SINGLE POINT ENERGY      -232.543612898497
                    ***********************HURRAY********************
FINAL SINGLE POINT ENERGY      -232.543613044965

CARTESIAN COORDINATES (ANGSTROEM)
---------------------------------
  C     -0.706092   -0.740854    0.334377
  C      0.745621   -0.757738   -0.169321
  C      1.162203    0.700383    0.024109
  O     -0.039694    1.494245   -0.163023
  C     -1.197009    0.616506   -0.168926
  H     -1.309005   -1.573134   -0.052553
  H     -0.730813   -0.776521    1.434154
  H      0.778230   -1.030375   -1.235179
  H      1.389203   -1.453470    0.385357
  H      1.550797    0.873554    1.043655
  H      1.917161    1.039268   -0.701177
  H     -1.586551    0.543822   -1.200169
  H     -1.974051    1.064314    0.468695

 Multiplicity           Mult            ....    1
 Number of Electrons    NEL             ....   40
 Basis Dimension        Dim             ....  260

ORBITAL ENERGIES
----------------

  NO   OCC          E(Eh)            E(eV)
   0   2.0000     -18.769444      -510.7425
   1   2.0000      -9.935119      -270.3483
   2   2.0000      -9.935108      -270.3480
   3   2.0000      -9.893773      -269.2232
   4   2.0000      -9.893668      -269.2204
   5   2.0000      -0.938863       -25.5478
   6   2.0000      -0.709799       -19.3146
   7   2.0000      -0.665402       -18.1065
   8   2.0000      -0.532858       -14.4998
   9   2.0000      -0.529407       -14.4059
  10   2.0000      -0.447714       -12.1829
  11   2.0000      -0.438667       -11.9367
  12   2.0000      -0.382685       -10.4134
  13   2.0000      -0.378384       -10.2964
  14   2.0000      -0.353557        -9.6208
  15   2.0000      -0.312587        -8.5059
  16   2.0000      -0.308406        -8.3922
  17   2.0000      -0.289100        -7.8668
  18   2.0000      -0.282300        -7.6818
  19   2.0000      -0.210580        -5.7302
  20   0.0000       0.002830         0.0770
  21   0.0000       0.028464         0.7745
  22   0.0000       0.030510         0.8302
  23   0.0000       0.032420         0.8822
  24   0.0000       0.046181         1.2566

MULLIKEN ATOMIC CHARGES
-----------------------
   0 C :   -0.461261
   1 C :   -0.461518
   2 C :   -0.408285
   3 O :   -0.447212
   4 C :   -0.406204
   5 H :    0.302945
   6 H :    0.273919
   7 H :    0.274178
   8 H :    0.302397
   9 H :    0.254604
  10 H :    0.260889
  11 H :    0.254547
  12 H :    0.261001
Sum of atomic charges:   -0.0000000

LOEWDIN ATOMIC CHARGES
----------------------
   0 C :   -0.175128
   1 C :   -0.175107
   2 C :   -0.210388
   3 O :   -0.169948
   4 C :   -0.210528
   5 H :    0.116703
   6 H :    0.117634
   7 H :    0.117644
   8 H :    0.116673
   9 H :    0.118325
  10 H :    0.117868
  11 H :    0.118345
  12 H :    0.117907

  Mayer bond orders larger than 0.100000
B(  0-C ,  1-C ) :   0.9166 B(  0-C ,  4-C ) :   1.0133 B(  0-C ,  5-H ) :   0.9271
B(  0-C ,  6-H ) :   0.9094 B(  1-C ,  2-C ) :   1.0137 B(  1-C ,  7-H ) :   0.9099
B(  1-C ,  8-H ) :   0.9274 B(  2-C ,  3-O ) :   0.8193 B(  2-C ,  9-H ) :   0.9317
B(  2-C , 10-H ) :   0.9386 B(  3-O ,  4-C ) :   0.8180 B(  4-C , 11-H ) :   0.9320
B(  4-C , 12-H ) :   0.9382

FINAL SINGLE POINT ENERGY      -232.545192650703

DIPOLE MOMENT
-------------

Method             : SCF
Type of density    : Electron Density
Multiplicity       :   1
Irrep              :   0
Energy             :  -232.5451926507032852 Eh
Relativity type    :
Basis              : AO
                                X                 Y                 Z
Electronic contribution:     -0.061963012       2.335471412      -0.254494493
Nuclear contribution   :      0.088860852      -3.336959608       0.363199569
                        -----------------------------------------
Total Dipole Moment    :      0.026897840      -1.001488196       0.108705075
                        -----------------------------------------
Magnitude (a.u.)       :      1.007729574
Magnitude (Debye)      :      2.561445016

Rotational constants in cm-1:             0.233186             0.231340             0.131959
Rotational constants in MHz :          6990.729961          6935.396542          3956.028177

                             ****ORCA TERMINATED NORMALLY****
TOTAL RUN TIME: 0 days 0 hours 1 minutes 8 seconds 906 msec
